 Entering Gaussian System, Link 0=/usr/local/g09_c01/g09
 Initial command:
 /usr/local/g09_c01/l1.exe /scr/gf/dave/122079/Gau-31891.inp -scrdir=/scr/gf/dave/122079/
 Entering Link 1 = /usr/local/g09_c01/l1.exe PID=     31893.
  
 Copyright (c) 1988,1990,1992,1993,1995,1998,2003,2009,2011,
            Gaussian, Inc.  All Rights Reserved.
  
 This is part of the Gaussian(R) 09 program.  It is based on
 the Gaussian(R) 03 system (copyright 2003, Gaussian, Inc.),
 the Gaussian(R) 98 system (copyright 1998, Gaussian, Inc.),
 the Gaussian(R) 94 system (copyright 1995, Gaussian, Inc.),
 the Gaussian 92(TM) system (copyright 1992, Gaussian, Inc.),
 the Gaussian 90(TM) system (copyright 1990, Gaussian, Inc.),
 the Gaussian 88(TM) system (copyright 1988, Gaussian, Inc.),
 the Gaussian 86(TM) system (copyright 1986, Carnegie Mellon
 University), and the Gaussian 82(TM) system (copyright 1983,
 Carnegie Mellon University). Gaussian is a federally registered
 trademark of Gaussian, Inc.
  
 This software contains proprietary and confidential information,
 including trade secrets, belonging to Gaussian, Inc.
  
 This software is provided under written license and may be
 used, copied, transmitted, or stored only in accord with that
 written license.
  
 The following legend is applicable only to US Government
 contracts under FAR:
  
                    RESTRICTED RIGHTS LEGEND
  
 Use, reproduction and disclosure by the US Government is
 subject to restrictions as set forth in subparagraphs (a)
 and (c) of the Commercial Computer Software - Restricted
 Rights clause in FAR 52.227-19.
  
 Gaussian, Inc.
 340 Quinnipiac St., Bldg. 40, Wallingford CT 06492
  
  
 ---------------------------------------------------------------
 Warning -- This program may not be used in any manner that
 competes with the business of Gaussian, Inc. or will provide
 assistance to any competitor of Gaussian, Inc.  The licensee
 of this program is prohibited from giving any competitor of
 Gaussian, Inc. access to this program.  By using this program,
 the user acknowledges that Gaussian, Inc. is engaged in the
 business of creating and licensing software in the field of
 computational chemistry and represents and warrants to the
 licensee that it is not a competitor of Gaussian, Inc. and that
 it will not use this program in any manner prohibited above.
 ---------------------------------------------------------------
  

 Cite this work as:
 Gaussian 09, Revision C.01,
 M. J. Frisch, G. W. Trucks, H. B. Schlegel, G. E. Scuseria, 
 M. A. Robb, J. R. Cheeseman, G. Scalmani, V. Barone, B. Mennucci, 
 G. A. Petersson, H. Nakatsuji, M. Caricato, X. Li, H. P. Hratchian, 
 A. F. Izmaylov, J. Bloino, G. Zheng, J. L. Sonnenberg, M. Hada, 
 M. Ehara, K. Toyota, R. Fukuda, J. Hasegawa, M. Ishida, T. Nakajima, 
 Y. Honda, O. Kitao, H. Nakai, T. Vreven, J. A. Montgomery, Jr., 
 J. E. Peralta, F. Ogliaro, M. Bearpark, J. J. Heyd, E. Brothers, 
 K. N. Kudin, V. N. Staroverov, T. Keith, R. Kobayashi, J. Normand, 
 K. Raghavachari, A. Rendell, J. C. Burant, S. S. Iyengar, J. Tomasi, 
 M. Cossi, N. Rega, J. M. Millam, M. Klene, J. E. Knox, J. B. Cross, 
 V. Bakken, C. Adamo, J. Jaramillo, R. Gomperts, R. E. Stratmann, 
 O. Yazyev, A. J. Austin, R. Cammi, C. Pomelli, J. W. Ochterski, 
 R. L. Martin, K. Morokuma, V. G. Zakrzewski, G. A. Voth, 
 P. Salvador, J. J. Dannenberg, S. Dapprich, A. D. Daniels, 
 O. Farkas, J. B. Foresman, J. V. Ortiz, J. Cioslowski, 
 and D. J. Fox, Gaussian, Inc., Wallingford CT, 2010.
 
 ******************************************
 Gaussian 09:  EM64L-G09RevC.01 23-Sep-2011
                29-Nov-2017 
 ******************************************
 %chk=molecule
 ------------------------------------------------------------
 #HF/6-31G* SCF=tight Test Pop=MK iop(6/33=2) iop(6/42=6) opt
 ------------------------------------------------------------
 1/18=20,19=15,38=1/1,3;
 2/9=110,12=2,17=6,18=5,40=1/2;
 3/5=1,6=6,7=1,11=9,16=1,25=1,30=1,71=1/1,2,3;
 4//1;
 5/5=2,32=2,38=5/2;
 6/7=2,8=2,9=2,10=2,15=8,20=1,28=1,33=2,42=6/1,2;
 7//1,2,3,16;
 1/18=20,19=15/3(2);
 2/9=110/2;
 99//99;
 2/9=110/2;
 3/5=1,6=6,7=1,11=9,16=1,25=1,30=1,71=1/1,2,3;
 4/5=5,16=3/1;
 5/5=2,32=2,38=5/2;
 7//1,2,3,16;
 1/18=20,19=15/3(-5);
 2/9=110/2;
 6/7=2,8=2,9=2,10=2,15=8,19=2,20=1,28=1,33=2,42=6/1,2;
 99/9=1/99;
 ---------------------
 remark line goes here
 ---------------------
 Charge =  0 Multiplicity = 1
 Symbolic Z-Matrix:
 F                     5.436     10.506   -9.529 
 F                     4.582     9.552    -7.715 
 C                     4.352     10.45    -8.71 
 C                     3.131     10.015   -9.514 
 C                     3.38      9.779    -10.851 
 C                     2.39      9.375    -11.729 
 C                     1.084     9.219    -11.246 
 C                     0.807     9.458    -9.881 
 C                     1.833     9.843    -9.019 
 C                    -0.495     9.197    -9.404 
 C                    -0.816     8.299    -8.367 
 C                     0.088     7.485    -7.457 
 N                    -2.134     8.198    -8.195 
 O                    -2.72      9.024    -9.159 
 C                    -1.732     9.613    -9.901 
 N                    -2.023     10.599   -11.042 
 F                     4.126     11.677   -8.171 
 H                    -1.575     10.224   -11.974 
 H                    -3.111     10.699   -11.171 
 H                     0.707     6.809    -8.065 
 H                     0.738     8.163    -6.884 
 H                    -0.527     6.894    -6.763 
 H                     1.627     10.009   -7.968 
 H                     0.289     8.916    -11.918 
 H                     4.388     9.915    -11.226 
 H                     2.621     9.183    -12.771 
 

 GradGradGradGradGradGradGradGradGradGradGradGradGradGradGradGradGradGrad
 Berny optimization.
 Initialization pass.
                           ----------------------------
                           !    Initial Parameters    !
                           ! (Angstroms and Degrees)  !
 --------------------------                            --------------------------
 ! Name  Definition              Value          Derivative Info.                !
 --------------------------------------------------------------------------------
 ! R1    R(1,3)                  1.3598         estimate D2E/DX2                !
 ! R2    R(2,3)                  1.3599         estimate D2E/DX2                !
 ! R3    R(3,4)                  1.5253         estimate D2E/DX2                !
 ! R4    R(3,17)                 1.3591         estimate D2E/DX2                !
 ! R5    R(4,5)                  1.3803         estimate D2E/DX2                !
 ! R6    R(4,9)                  1.3998         estimate D2E/DX2                !
 ! R7    R(5,6)                  1.3835         estimate D2E/DX2                !
 ! R8    R(5,25)                 1.0841         estimate D2E/DX2                !
 ! R9    R(6,7)                  1.4012         estimate D2E/DX2                !
 ! R10   R(6,26)                 1.0844         estimate D2E/DX2                !
 ! R11   R(7,8)                  1.4132         estimate D2E/DX2                !
 ! R12   R(7,24)                 1.0842         estimate D2E/DX2                !
 ! R13   R(8,9)                  1.3943         estimate D2E/DX2                !
 ! R14   R(8,10)                 1.411          estimate D2E/DX2                !
 ! R15   R(9,23)                 1.0838         estimate D2E/DX2                !
 ! R16   R(10,11)                1.4088         estimate D2E/DX2                !
 ! R17   R(10,15)                1.3965         estimate D2E/DX2                !
 ! R18   R(11,12)                1.5192         estimate D2E/DX2                !
 ! R19   R(11,13)                1.333          estimate D2E/DX2                !
 ! R20   R(12,20)                1.0999         estimate D2E/DX2                !
 ! R21   R(12,21)                1.1002         estimate D2E/DX2                !
 ! R22   R(12,22)                1.0996         estimate D2E/DX2                !
 ! R23   R(13,14)                1.3982         estimate D2E/DX2                !
 ! R24   R(14,15)                1.3688         estimate D2E/DX2                !
 ! R25   R(15,16)                1.5358         estimate D2E/DX2                !
 ! R26   R(16,18)                1.1            estimate D2E/DX2                !
 ! R27   R(16,19)                1.1002         estimate D2E/DX2                !
 ! A1    A(1,3,2)              109.4545         estimate D2E/DX2                !
 ! A2    A(1,3,4)              109.4158         estimate D2E/DX2                !
 ! A3    A(1,3,17)             109.5271         estimate D2E/DX2                !
 ! A4    A(2,3,4)              109.4352         estimate D2E/DX2                !
 ! A5    A(2,3,17)             109.5187         estimate D2E/DX2                !
 ! A6    A(4,3,17)             109.4758         estimate D2E/DX2                !
 ! A7    A(3,4,5)              114.5149         estimate D2E/DX2                !
 ! A8    A(3,4,9)              126.2237         estimate D2E/DX2                !
 ! A9    A(5,4,9)              119.2614         estimate D2E/DX2                !
 ! A10   A(4,5,6)              122.38           estimate D2E/DX2                !
 ! A11   A(4,5,25)             118.7739         estimate D2E/DX2                !
 ! A12   A(6,5,25)             118.8461         estimate D2E/DX2                !
 ! A13   A(5,6,7)              118.7317         estimate D2E/DX2                !
 ! A14   A(5,6,26)             120.6004         estimate D2E/DX2                !
 ! A15   A(7,6,26)             120.6679         estimate D2E/DX2                !
 ! A16   A(6,7,8)              119.7906         estimate D2E/DX2                !
 ! A17   A(6,7,24)             120.0616         estimate D2E/DX2                !
 ! A18   A(8,7,24)             120.1478         estimate D2E/DX2                !
 ! A19   A(7,8,9)              119.9757         estimate D2E/DX2                !
 ! A20   A(7,8,10)             118.4328         estimate D2E/DX2                !
 ! A21   A(9,8,10)             121.4069         estimate D2E/DX2                !
 ! A22   A(4,9,8)              119.8457         estimate D2E/DX2                !
 ! A23   A(4,9,23)             120.0237         estimate D2E/DX2                !
 ! A24   A(8,9,23)             120.1305         estimate D2E/DX2                !
 ! A25   A(8,10,11)            125.2395         estimate D2E/DX2                !
 ! A26   A(8,10,15)            129.9376         estimate D2E/DX2                !
 ! A27   A(11,10,15)           104.4781         estimate D2E/DX2                !
 ! A28   A(10,11,12)           130.3053         estimate D2E/DX2                !
 ! A29   A(10,11,13)           111.6265         estimate D2E/DX2                !
 ! A30   A(12,11,13)           118.0648         estimate D2E/DX2                !
 ! A31   A(11,12,20)           109.4557         estimate D2E/DX2                !
 ! A32   A(11,12,21)           109.4707         estimate D2E/DX2                !
 ! A33   A(11,12,22)           109.4646         estimate D2E/DX2                !
 ! A34   A(20,12,21)           109.5203         estimate D2E/DX2                !
 ! A35   A(20,12,22)           109.4694         estimate D2E/DX2                !
 ! A36   A(21,12,22)           109.4466         estimate D2E/DX2                !
 ! A37   A(11,13,14)           106.3001         estimate D2E/DX2                !
 ! A38   A(13,14,15)           108.9918         estimate D2E/DX2                !
 ! A39   A(10,15,14)           108.5574         estimate D2E/DX2                !
 ! A40   A(10,15,16)           128.5702         estimate D2E/DX2                !
 ! A41   A(14,15,16)           122.8345         estimate D2E/DX2                !
 ! A42   A(15,16,18)           109.4773         estimate D2E/DX2                !
 ! A43   A(15,16,19)           109.4414         estimate D2E/DX2                !
 ! A44   A(18,16,19)           109.5368         estimate D2E/DX2                !
 ! D1    D(1,3,4,5)              0.06           estimate D2E/DX2                !
 ! D2    D(1,3,4,9)            179.9845         estimate D2E/DX2                !
 ! D3    D(2,3,4,5)           -119.8637         estimate D2E/DX2                !
 ! D4    D(2,3,4,9)             60.0608         estimate D2E/DX2                !
 ! D5    D(17,3,4,5)           120.0974         estimate D2E/DX2                !
 ! D6    D(17,3,4,9)           -59.9781         estimate D2E/DX2                !
 ! D7    D(3,4,5,6)            179.8882         estimate D2E/DX2                !
 ! D8    D(3,4,5,25)            -0.0924         estimate D2E/DX2                !
 ! D9    D(9,4,5,6)             -0.0419         estimate D2E/DX2                !
 ! D10   D(9,4,5,25)           179.9774         estimate D2E/DX2                !
 ! D11   D(3,4,9,8)            179.0644         estimate D2E/DX2                !
 ! D12   D(3,4,9,23)            -0.9321         estimate D2E/DX2                !
 ! D13   D(5,4,9,8)             -1.0144         estimate D2E/DX2                !
 ! D14   D(5,4,9,23)           178.9891         estimate D2E/DX2                !
 ! D15   D(4,5,6,7)              0.9482         estimate D2E/DX2                !
 ! D16   D(4,5,6,26)          -179.0581         estimate D2E/DX2                !
 ! D17   D(25,5,6,7)          -179.0712         estimate D2E/DX2                !
 ! D18   D(25,5,6,26)            0.9225         estimate D2E/DX2                !
 ! D19   D(5,6,7,8)             -0.7989         estimate D2E/DX2                !
 ! D20   D(5,6,7,24)           179.1927         estimate D2E/DX2                !
 ! D21   D(26,6,7,8)           179.2074         estimate D2E/DX2                !
 ! D22   D(26,6,7,24)           -0.801          estimate D2E/DX2                !
 ! D23   D(6,7,8,9)             -0.2318         estimate D2E/DX2                !
 ! D24   D(6,7,8,10)          -175.3645         estimate D2E/DX2                !
 ! D25   D(24,7,8,9)           179.7766         estimate D2E/DX2                !
 ! D26   D(24,7,8,10)            4.6439         estimate D2E/DX2                !
 ! D27   D(7,8,9,4)              1.1448         estimate D2E/DX2                !
 ! D28   D(7,8,9,23)          -178.8586         estimate D2E/DX2                !
 ! D29   D(10,8,9,4)           176.1295         estimate D2E/DX2                !
 ! D30   D(10,8,9,23)           -3.874          estimate D2E/DX2                !
 ! D31   D(7,8,10,11)          121.2981         estimate D2E/DX2                !
 ! D32   D(7,8,10,15)          -50.8819         estimate D2E/DX2                !
 ! D33   D(9,8,10,11)          -53.7617         estimate D2E/DX2                !
 ! D34   D(9,8,10,15)          134.0584         estimate D2E/DX2                !
 ! D35   D(8,10,11,12)           4.7535         estimate D2E/DX2                !
 ! D36   D(8,10,11,13)        -175.9513         estimate D2E/DX2                !
 ! D37   D(15,10,11,12)        178.5681         estimate D2E/DX2                !
 ! D38   D(15,10,11,13)         -2.1368         estimate D2E/DX2                !
 ! D39   D(8,10,15,14)         175.4619         estimate D2E/DX2                !
 ! D40   D(8,10,15,16)          -6.7568         estimate D2E/DX2                !
 ! D41   D(11,10,15,14)          2.0525         estimate D2E/DX2                !
 ! D42   D(11,10,15,16)        179.8338         estimate D2E/DX2                !
 ! D43   D(10,11,12,20)        -60.0661         estimate D2E/DX2                !
 ! D44   D(10,11,12,21)         59.9841         estimate D2E/DX2                !
 ! D45   D(10,11,12,22)        179.9497         estimate D2E/DX2                !
 ! D46   D(13,11,12,20)        120.6765         estimate D2E/DX2                !
 ! D47   D(13,11,12,21)       -119.2733         estimate D2E/DX2                !
 ! D48   D(13,11,12,22)          0.6922         estimate D2E/DX2                !
 ! D49   D(10,11,13,14)          1.3573         estimate D2E/DX2                !
 ! D50   D(12,11,13,14)       -179.2519         estimate D2E/DX2                !
 ! D51   D(11,13,14,15)         -0.0046         estimate D2E/DX2                !
 ! D52   D(13,14,15,10)         -1.3352         estimate D2E/DX2                !
 ! D53   D(13,14,15,16)       -179.2708         estimate D2E/DX2                !
 ! D54   D(10,15,16,18)         59.99           estimate D2E/DX2                !
 ! D55   D(10,15,16,19)       -179.9441         estimate D2E/DX2                !
 ! D56   D(14,15,16,18)       -122.5134         estimate D2E/DX2                !
 ! D57   D(14,15,16,19)         -2.4476         estimate D2E/DX2                !
 --------------------------------------------------------------------------------
 Trust Radius=3.00D-01 FncErr=1.00D-07 GrdErr=1.00D-07
 Number of steps in this run=    138 maximum allowed number of steps=    156.
 GradGradGradGradGradGradGradGradGradGradGradGradGradGradGradGradGradGrad

                          Input orientation:                          
 ---------------------------------------------------------------------
 Center     Atomic      Atomic             Coordinates (Angstroms)
 Number     Number       Type             X           Y           Z
 ---------------------------------------------------------------------
      1          9           0        5.436000   10.506000   -9.529000
      2          9           0        4.582000    9.552000   -7.715000
      3          6           0        4.352000   10.450000   -8.710000
      4          6           0        3.131000   10.015000   -9.514000
      5          6           0        3.380000    9.779000  -10.851000
      6          6           0        2.390000    9.375000  -11.729000
      7          6           0        1.084000    9.219000  -11.246000
      8          6           0        0.807000    9.458000   -9.881000
      9          6           0        1.833000    9.843000   -9.019000
     10          6           0       -0.495000    9.197000   -9.404000
     11          6           0       -0.816000    8.299000   -8.367000
     12          6           0        0.088000    7.485000   -7.457000
     13          7           0       -2.134000    8.198000   -8.195000
     14          8           0       -2.720000    9.024000   -9.159000
     15          6           0       -1.732000    9.613000   -9.901000
     16          7           0       -2.023000   10.599000  -11.042000
     17          9           0        4.126000   11.677000   -8.171000
     18          1           0       -1.575000   10.224000  -11.974000
     19          1           0       -3.111000   10.699000  -11.171000
     20          1           0        0.707000    6.809000   -8.065000
     21          1           0        0.738000    8.163000   -6.884000
     22          1           0       -0.527000    6.894000   -6.763000
     23          1           0        1.627000   10.009000   -7.968000
     24          1           0        0.289000    8.916000  -11.918000
     25          1           0        4.388000    9.915000  -11.226000
     26          1           0        2.621000    9.183000  -12.771000
 ---------------------------------------------------------------------
                    Distance matrix (angstroms):
                    1          2          3          4          5
     1  F    0.000000
     2  F    2.220367   0.000000
     3  C    1.359762   1.359900   0.000000
     4  C    2.356763   2.357153   1.525281   0.000000
     5  C    2.550166   3.366130   2.445180   1.380314   0.000000
     6  C    3.923936   4.576941   3.757583   2.421757   1.383546
     7  C    4.852253   4.981451   4.315841   2.797079   2.396089
     8  C    4.759186   4.353277   3.862943   2.417833   2.768442
     9  C    3.698821   3.056485   2.609462   1.399790   2.398651
    10  C    6.075020   5.362339   5.054212   3.718750   4.177099
    11  C    6.731166   5.579742   5.608268   4.454108   5.095790
    12  C    6.482340   4.953291   5.342558   4.460045   5.255372
    13  N    8.025666   6.867923   6.885123   5.723764   6.321241
    14  O    8.297805   7.462113   7.228296   5.944940   6.375178
    15  C    7.232984   6.681984   6.255726   4.894910   5.202173
    16  N    7.611472   7.469348   6.789775   5.407361   5.468207
    17  F    2.220699   2.220697   1.359090   2.357099   3.367688
    18  H    7.430456   7.516603   6.770089   5.314294   5.100116
    19  H    8.705436   8.511275   7.862245   6.494311   6.563679
    20  H    6.178555   4.760480   5.192199   4.272448   4.871101
    21  H    5.878510   4.170877   4.650338   4.009146   5.032764
    22  H    7.500311   5.837221   6.343547   5.539820   6.348198
    23  H    4.146349   3.000814   2.858438   2.156888   3.381952
    24  H    5.892964   6.041486   5.399295   3.881234   3.381943
    25  H    2.080239   3.535043   2.572504   2.126263   1.084060
    26  H    4.492785   5.435515   4.592752   3.400055   2.148883
                    6          7          8          9         10
     6  C    0.000000
     7  C    1.401164   0.000000
     8  C    2.434724   1.413179   0.000000
     9  C    2.805953   2.431030   1.394254   0.000000
    10  C    3.709519   2.426250   1.410976   2.446452   0.000000
    11  C    4.768570   3.570020   2.503918   3.134684   1.408834
    12  C    5.207810   4.284308   3.207096   3.323407   2.657375
    13  N    5.860125   4.550447   3.616584   4.372881   2.268480
    14  O    5.730637   4.343272   3.626206   4.628193   2.245123
    15  C    4.515430   3.145492   2.543805   3.679681   1.396508
    16  N    4.630844   3.405799   3.264767   4.419593   2.642618
    17  F    4.579548   4.975053   4.343250   3.056225   5.387423
    18  H    4.062272   2.934330   3.262105   4.526770   2.970863
    19  H    5.685538   4.449050   4.307540   5.459577   3.495962
    20  H    4.779303   4.008614   3.213263   3.373892   2.990028
    21  H    5.260425   4.501322   3.265547   2.929104   2.989957
    22  H    6.270997   5.300777   4.251538   4.399516   3.504242
    23  H    3.889633   3.415294   2.153037   1.083786   2.687810
    24  H    2.158843   1.084167   2.170589   3.412838   2.648360
    25  H    2.129933   3.376571   3.852458   3.376989   5.261074
    26  H    1.084430   2.165477   3.423203   3.890250   4.587629
                   11         12         13         14         15
    11  C    0.000000
    12  C    1.519181   0.000000
    13  N    1.333008   2.447508   0.000000
    14  O    2.185888   3.626319   1.398202   0.000000
    15  C    2.217839   3.716708   2.252613   1.368806   0.000000
    16  N    3.728602   5.196686   3.725927   2.551886   1.535825
    17  F    5.989379   5.864137   7.161817   7.408257   6.447415
    18  H    4.158384   5.538139   4.324118   3.267300   2.166864
    19  H    4.346198   5.861501   4.008255   2.647008   2.166550
    20  H    2.151937   1.099910   3.165044   4.224617   4.145122
    21  H    2.152371   1.100233   3.157266   4.227849   4.160011
    22  H    2.151828   1.099610   2.516642   3.884194   4.323428
    23  H    3.008579   3.000036   4.180475   4.613579   3.895662
    24  H    3.769790   4.689209   4.499687   4.083849   2.939139
    25  H    6.153613   6.212911   7.394020   7.455872   6.269069
    26  H    5.655939   6.126817   6.672333   6.449659   5.231674
                   16         17         18         19         20
    16  N    0.000000
    17  F    6.871312   0.000000
    18  H    1.099979   7.005385   0.000000
    19  H    1.100175   7.894976   1.797145   0.000000
    20  H    5.538910   5.949640   5.670100   6.273473   0.000000
    21  H    5.553934   5.048080   5.958674   6.294797   1.796952
    22  H    5.854475   6.819821   6.272298   6.370679   1.795880
    23  H    4.808334   3.011384   5.132939   5.760551   3.331037
    24  H    2.990854   6.032056   2.277827   3.911150   4.411324
    25  H    6.450010   3.536427   6.017670   7.540072   5.760982
    26  H    5.153759   5.444728   4.396056   6.141179   5.607647
                   21         22         23         24         25
    21  H    0.000000
    22  H    1.795892   0.000000
    23  H    2.317993   3.974288   0.000000
    24  H    5.109772   5.597175   4.311310   0.000000
    25  H    5.936747   7.293973   4.271595   4.275356   0.000000
    26  H    6.264412   7.158595   4.973844   2.497423   2.458686
                   26
    26  H    0.000000
 Stoichiometry    C11H9F3N2O
 Framework group  C1[X(C11H9F3N2O)]
 Deg. of freedom    72
 Full point group                 C1      NOp   1
 Largest Abelian subgroup         C1      NOp   1
 Largest concise Abelian subgroup C1      NOp   1
                         Standard orientation:                         
 ---------------------------------------------------------------------
 Center     Atomic      Atomic             Coordinates (Angstroms)
 Number     Number       Type             X           Y           Z
 ---------------------------------------------------------------------
      1          9           0       -4.192442   -0.351966   -0.089974
      2          9           0       -3.242024    1.653069   -0.171003
      3          6           0       -3.162540    0.407730    0.369500
      4          6           0       -1.839253   -0.236103   -0.031590
      5          6           0       -1.966918   -1.407988   -0.749680
      6          6           0       -0.872051   -2.125527   -1.197568
      7          6           0        0.412102   -1.654488   -0.893701
      8          6           0        0.565084   -0.458036   -0.157376
      9          6           0       -0.560046    0.251841    0.259878
     10          6           0        1.868179    0.042845    0.047357
     11          6           0        2.324149    1.312487   -0.358742
     12          6           0        1.573262    2.468150   -0.997900
     13          7           0        3.623203    1.471973   -0.105897
     14          8           0        4.063922    0.270232    0.456735
     15          6           0        3.009455   -0.599236    0.532594
     16          7           0        3.136586   -2.013314    1.118238
     17          9           0       -3.231669    0.495334    1.724001
     18          1           0        2.825114   -2.751712    0.364775
     19          1           0        4.182635   -2.198474    1.404387
     20          1           0        1.144005    2.140818   -1.956228
     21          1           0        0.765916    2.796932   -0.326627
     22          1           0        2.266627    3.303425   -1.173125
     23          1           0       -0.445486    1.179339    0.808711
     24          1           0        1.285116   -2.206797   -1.222666
     25          1           0       -2.961300   -1.778881   -0.970654
     26          1           0       -1.005848   -3.035103   -1.772684
 ---------------------------------------------------------------------
 Rotational constants (GHZ):      0.8996708      0.2556680      0.2247535
 Standard basis: 6-31G(d) (6D, 7F)
 There are   273 symmetry adapted basis functions of A   symmetry.
 Integral buffers will be    131072 words long.
 Raffenetti 1 integral format.
 Two-electron integral symmetry is turned on.
   273 basis functions,   512 primitive gaussians,   273 cartesian basis functions
    62 alpha electrons       62 beta electrons
       nuclear repulsion energy      1193.9198832870 Hartrees.
 NAtoms=   26 NActive=   26 NUniq=   26 SFac= 1.00D+00 NAtFMM=   60 NAOKFM=F Big=F
 One-electron integrals computed using PRISM.
 NBasis=   273 RedAO= T  NBF=   273
 NBsUse=   273 1.00D-06 NBFU=   273
 Harris functional with IExCor=  205 diagonalized for initial guess.
 ExpMin= 1.61D-01 ExpMax= 7.00D+03 ExpMxC= 1.05D+03 IAcc=1 IRadAn=         1 AccDes= 0.00D+00
 HarFok:  IExCor=  205 AccDes= 0.00D+00 IRadAn=         1 IDoV= 1
 ScaDFX=  1.000000  1.000000  1.000000  1.000000
 FoFCou: FMM=F IPFlag=           0 FMFlag=      100000 FMFlg1=           0
         NFxFlg=           0 DoJE=T BraDBF=F KetDBF=T FulRan=T
         Omega=  0.000000  0.000000  1.000000  0.000000  0.000000 ICntrl=     500 IOpCl=  0
         NMat0=    1 NMatS0=    1 NMatT0=    0 NMatD0=    1 NMtDS0=    0 NMtDT0=    0
         I1Cent=           4 NGrid=           0.
 Petite list used in FoFCou.
 Initial guess orbital symmetries:
       Occupied  (A) (A) (A) (A) (A) (A) (A) (A) (A) (A) (A) (A)
                 (A) (A) (A) (A) (A) (A) (A) (A) (A) (A) (A) (A)
                 (A) (A) (A) (A) (A) (A) (A) (A) (A) (A) (A) (A)
                 (A) (A) (A) (A) (A) (A) (A) (A) (A) (A) (A) (A)
                 (A) (A) (A) (A) (A) (A) (A) (A) (A) (A) (A) (A)
                 (A) (A)
       Virtual   (A) (A) (A) (A) (A) (A) (A) (A) (A) (A) (A) (A)
                 (A) (A) (A) (A) (A) (A) (A) (A) (A) (A) (A) (A)
                 (A) (A) (A) (A) (A) (A) (A) (A) (A) (A) (A) (A)
                 (A) (A) (A) (A) (A) (A) (A) (A) (A) (A) (A) (A)
                 (A) (A) (A) (A) (A) (A) (A) (A) (A) (A) (A) (A)
                 (A) (A) (A) (A) (A) (A) (A) (A) (A) (A) (A) (A)
                 (A) (A) (A) (A) (A) (A) (A) (A) (A) (A) (A) (A)
                 (A) (A) (A) (A) (A) (A) (A) (A) (A) (A) (A) (A)
                 (A) (A) (A) (A) (A) (A) (A) (A) (A) (A) (A) (A)
                 (A) (A) (A) (A) (A) (A) (A) (A) (A) (A) (A) (A)
                 (A) (A) (A) (A) (A) (A) (A) (A) (A) (A) (A) (A)
                 (A) (A) (A) (A) (A) (A) (A) (A) (A) (A) (A) (A)
                 (A) (A) (A) (A) (A) (A) (A) (A) (A) (A) (A) (A)
                 (A) (A) (A) (A) (A) (A) (A) (A) (A) (A) (A) (A)
                 (A) (A) (A) (A) (A) (A) (A) (A) (A) (A) (A) (A)
                 (A) (A) (A) (A) (A) (A) (A) (A) (A) (A) (A) (A)
                 (A) (A) (A) (A) (A) (A) (A) (A) (A) (A) (A) (A)
                 (A) (A) (A) (A) (A) (A) (A)
 The electronic state of the initial guess is 1-A.
 Requested convergence on RMS density matrix=1.00D-08 within 128 cycles.
 Requested convergence on MAX density matrix=1.00D-06.
 Requested convergence on             energy=1.00D-06.
 No special actions if energy rises.
 Integral accuracy reduced to 1.0D-05 until final iterations.
 Initial convergence to 1.0D-05 achieved.  Increase integral accuracy.
 SCF Done:  E(RHF) =  -903.775649519     A.U. after   16 cycles
             Convg  =    0.9206D-08             -V/T =  2.0031

 **********************************************************************

            Population analysis using the SCF density.

 **********************************************************************

 Orbital symmetries:
 BldTbl:  Degeneracy threshold= 1.00D-02
       Occupied  (A) (A) (A) (A) (A) (A) (A) (A) (A) (A) (A) (A)
                 (A) (A) (A) (A) (A) (A) (A) (A) (A) (A) (A) (A)
                 (A) (A) (A) (A) (A) (A) (A) (A) (A) (A) (A) (A)
                 (A) (A) (A) (A) (A) (A) (A) (A) (A) (A) (A) (A)
                 (A) (A) (A) (A) (A) (A) (A) (A) (A) (A) (A) (A)
                 (A) (A)
       Virtual   (A) (A) (A) (A) (A) (A) (A) (A) (A) (A) (A) (A)
                 (A) (A) (A) (A) (A) (A) (A) (A) (A) (A) (A) (A)
                 (A) (A) (A) (A) (A) (A) (A) (A) (A) (A) (A) (A)
                 (A) (A) (A) (A) (A) (A) (A) (A) (A) (A) (A) (A)
                 (A) (A) (A) (A) (A) (A) (A) (A) (A) (A) (A) (A)
                 (A) (A) (A) (A) (A) (A) (A) (A) (A) (A) (A) (A)
                 (A) (A) (A) (A) (A) (A) (A) (A) (A) (A) (A) (A)
                 (A) (A) (A) (A) (A) (A) (A) (A) (A) (A) (A) (A)
                 (A) (A) (A) (A) (A) (A) (A) (A) (A) (A) (A) (A)
                 (A) (A) (A) (A) (A) (A) (A) (A) (A) (A) (A) (A)
                 (A) (A) (A) (A) (A) (A) (A) (A) (A) (A) (A) (A)
                 (A) (A) (A) (A) (A) (A) (A) (A) (A) (A) (A) (A)
                 (A) (A) (A) (A) (A) (A) (A) (A) (A) (A) (A) (A)
                 (A) (A) (A) (A) (A) (A) (A) (A) (A) (A) (A) (A)
                 (A) (A) (A) (A) (A) (A) (A) (A) (A) (A) (A) (A)
                 (A) (A) (A) (A) (A) (A) (A) (A) (A) (A) (A) (A)
                 (A) (A) (A) (A) (A) (A) (A) (A) (A) (A) (A) (A)
                 (A) (A) (A) (A) (A) (A) (A)
 The electronic state is 1-A.
 Alpha  occ. eigenvalues --  -26.35082 -26.34362 -26.34295 -20.65761 -15.62857
 Alpha  occ. eigenvalues --  -15.61890 -11.52226 -11.37389 -11.29185 -11.27201
 Alpha  occ. eigenvalues --  -11.26848 -11.26660 -11.26434 -11.25803 -11.25401
 Alpha  occ. eigenvalues --  -11.24814 -11.24445  -1.71536  -1.63248  -1.62679
 Alpha  occ. eigenvalues --   -1.48619  -1.19444  -1.18696  -1.15909  -1.09300
 Alpha  occ. eigenvalues --   -1.05815  -1.01483  -0.98282  -0.96275  -0.87348
 Alpha  occ. eigenvalues --   -0.86671  -0.81855  -0.81287  -0.80358  -0.78037
 Alpha  occ. eigenvalues --   -0.76729  -0.71591  -0.70363  -0.70328  -0.68688
 Alpha  occ. eigenvalues --   -0.66976  -0.66129  -0.66073  -0.65189  -0.64663
 Alpha  occ. eigenvalues --   -0.64171  -0.63714  -0.61260  -0.59274  -0.58466
 Alpha  occ. eigenvalues --   -0.58020  -0.55321  -0.54397  -0.53007  -0.52162
 Alpha  occ. eigenvalues --   -0.51896  -0.49002  -0.46237  -0.41938  -0.37128
 Alpha  occ. eigenvalues --   -0.36063  -0.31795
 Alpha virt. eigenvalues --    0.10203   0.10768   0.14240   0.17614   0.21781
 Alpha virt. eigenvalues --    0.23299   0.24251   0.26245   0.28247   0.30058
 Alpha virt. eigenvalues --    0.30720   0.31688   0.31822   0.34316   0.35048
 Alpha virt. eigenvalues --    0.36409   0.37604   0.39749   0.41698   0.42833
 Alpha virt. eigenvalues --    0.43581   0.44135   0.45878   0.46374   0.48790
 Alpha virt. eigenvalues --    0.52695   0.56179   0.59575   0.61724   0.63701
 Alpha virt. eigenvalues --    0.66023   0.68618   0.69748   0.70753   0.72157
 Alpha virt. eigenvalues --    0.72818   0.75123   0.76555   0.77356   0.77729
 Alpha virt. eigenvalues --    0.78313   0.78888   0.80074   0.81038   0.82051
 Alpha virt. eigenvalues --    0.83113   0.83624   0.86671   0.88546   0.89539
 Alpha virt. eigenvalues --    0.89976   0.91315   0.91837   0.93401   0.95089
 Alpha virt. eigenvalues --    0.95602   0.98828   0.99536   1.02978   1.04295
 Alpha virt. eigenvalues --    1.04886   1.06426   1.07035   1.07647   1.08727
 Alpha virt. eigenvalues --    1.09105   1.09975   1.11513   1.14713   1.15488
 Alpha virt. eigenvalues --    1.15572   1.16531   1.18655   1.19118   1.19218
 Alpha virt. eigenvalues --    1.21138   1.22993   1.23400   1.26090   1.28635
 Alpha virt. eigenvalues --    1.30391   1.32612   1.33416   1.34105   1.34810
 Alpha virt. eigenvalues --    1.37521   1.38312   1.40377   1.41459   1.45302
 Alpha virt. eigenvalues --    1.46707   1.47346   1.49780   1.53098   1.59420
 Alpha virt. eigenvalues --    1.60203   1.62500   1.62706   1.63384   1.64014
 Alpha virt. eigenvalues --    1.64819   1.65654   1.66264   1.66950   1.69879
 Alpha virt. eigenvalues --    1.71230   1.72347   1.73787   1.74292   1.75344
 Alpha virt. eigenvalues --    1.78003   1.78060   1.79306   1.82164   1.88215
 Alpha virt. eigenvalues --    1.91130   1.94026   1.95122   1.98349   2.00300
 Alpha virt. eigenvalues --    2.02617   2.05238   2.06736   2.08761   2.10971
 Alpha virt. eigenvalues --    2.11550   2.12012   2.13113   2.13384   2.15418
 Alpha virt. eigenvalues --    2.17720   2.18664   2.22489   2.23365   2.24182
 Alpha virt. eigenvalues --    2.24625   2.26386   2.27935   2.31280   2.31611
 Alpha virt. eigenvalues --    2.32024   2.32189   2.35341   2.36108   2.38391
 Alpha virt. eigenvalues --    2.39339   2.41267   2.41721   2.42663   2.45455
 Alpha virt. eigenvalues --    2.46313   2.48288   2.51094   2.51990   2.54522
 Alpha virt. eigenvalues --    2.55321   2.56581   2.60376   2.61193   2.62448
 Alpha virt. eigenvalues --    2.63847   2.65065   2.69317   2.69796   2.74821
 Alpha virt. eigenvalues --    2.77277   2.77677   2.78780   2.81357   2.83741
 Alpha virt. eigenvalues --    2.88224   2.91011   2.95828   2.96427   2.97759
 Alpha virt. eigenvalues --    3.03272   3.06401   3.08831   3.10668   3.11083
 Alpha virt. eigenvalues --    3.12466   3.12878   3.14547   3.22568   3.25609
 Alpha virt. eigenvalues --    3.33511   3.35811   3.37449   3.41329   3.44323
 Alpha virt. eigenvalues --    3.47028   3.53857   3.61172   3.80617   4.13281
 Alpha virt. eigenvalues --    4.29431   4.48675   4.49863   4.50933   4.55038
 Alpha virt. eigenvalues --    4.59733   4.67848   4.68548   4.72205   4.75180
 Alpha virt. eigenvalues --    4.79930   4.88785   5.01859   5.09791   5.22112
 Alpha virt. eigenvalues --    5.95533
          Condensed to atoms (all electrons):
              1          2          3          4          5          6
     1  F    9.195807  -0.026635   0.275938  -0.038504  -0.004972   0.000810
     2  F   -0.026635   9.204800   0.274133  -0.051282   0.000928  -0.000017
     3  C    0.275938   0.274133   3.600822   0.410337  -0.038494   0.002108
     4  C   -0.038504  -0.051282   0.410337   5.043836   0.540158  -0.035128
     5  C   -0.004972   0.000928  -0.038494   0.540158   4.953839   0.524022
     6  C    0.000810  -0.000017   0.002108  -0.035128   0.524022   4.916160
     7  C   -0.000010  -0.000003  -0.000029  -0.034325  -0.048460   0.537645
     8  C   -0.000015   0.000202   0.001269  -0.033188  -0.031101  -0.041508
     9  C    0.002089   0.002574  -0.016257   0.499583  -0.045146  -0.038279
    10  C    0.000000   0.000000  -0.000087   0.002748   0.000538   0.005822
    11  C    0.000000   0.000000   0.000000   0.000163   0.000026  -0.000041
    12  C    0.000000  -0.000001  -0.000005  -0.000063  -0.000002  -0.000014
    13  N    0.000000   0.000000   0.000000   0.000000   0.000000   0.000000
    14  O    0.000000   0.000000   0.000000   0.000000   0.000000   0.000000
    15  C    0.000000   0.000000   0.000000  -0.000087   0.000011   0.000292
    16  N    0.000000   0.000000   0.000000   0.000001  -0.000003   0.000005
    17  F   -0.026646  -0.027453   0.276505  -0.051820   0.000940  -0.000019
    18  H    0.000000   0.000000   0.000000  -0.000002   0.000005  -0.000035
    19  H    0.000000   0.000000   0.000000   0.000000   0.000000   0.000000
    20  H    0.000000   0.000000  -0.000002  -0.000057  -0.000009  -0.000004
    21  H    0.000000   0.000007  -0.000006   0.000145   0.000001   0.000000
    22  H    0.000000   0.000000   0.000000   0.000001   0.000000   0.000000
    23  H    0.000013   0.000584  -0.000022  -0.027678   0.002379   0.000088
    24  H    0.000000   0.000000   0.000005   0.000175   0.002414  -0.027091
    25  H    0.006675   0.000220  -0.004289  -0.030278   0.380958  -0.029004
    26  H    0.000000   0.000000  -0.000068   0.001901  -0.028117   0.380533
              7          8          9         10         11         12
     1  F   -0.000010  -0.000015   0.002089   0.000000   0.000000   0.000000
     2  F   -0.000003   0.000202   0.002574   0.000000   0.000000  -0.000001
     3  C   -0.000029   0.001269  -0.016257  -0.000087   0.000000  -0.000005
     4  C   -0.034325  -0.033188   0.499583   0.002748   0.000163  -0.000063
     5  C   -0.048460  -0.031101  -0.045146   0.000538   0.000026  -0.000002
     6  C    0.537645  -0.041508  -0.038279   0.005822  -0.000041  -0.000014
     7  C    4.921617   0.546929  -0.034854  -0.042725   0.003122   0.000059
     8  C    0.546929   4.811953   0.542965   0.308737  -0.049679  -0.001192
     9  C   -0.034854   0.542965   4.948935  -0.035388  -0.006277  -0.002014
    10  C   -0.042725   0.308737  -0.035388   5.111447   0.481249  -0.045050
    11  C    0.003122  -0.049679  -0.006277   0.481249   4.710935   0.325708
    12  C    0.000059  -0.001192  -0.002014  -0.045050   0.325708   5.119514
    13  N   -0.000077   0.007653  -0.000045  -0.043475   0.508176  -0.050858
    14  O   -0.000023   0.005571  -0.000075  -0.033833  -0.101458   0.003774
    15  C   -0.005163  -0.061380   0.002885   0.605576  -0.077279   0.003026
    16  N   -0.000212   0.001665  -0.000118  -0.049455   0.001022  -0.000027
    17  F   -0.000001   0.000195   0.002417  -0.000002   0.000000   0.000000
    18  H    0.000306   0.000569  -0.000013  -0.004360  -0.000139   0.000000
    19  H    0.000015  -0.000120   0.000003   0.002673   0.000026   0.000001
    20  H    0.000174   0.001740   0.000244  -0.002030  -0.038610   0.386658
    21  H   -0.000037  -0.000882  -0.000219  -0.000370  -0.040745   0.388200
    22  H    0.000000  -0.000010   0.000120   0.002783  -0.036876   0.389725
    23  H    0.002246  -0.028476   0.372293   0.000556   0.001472  -0.000690
    24  H    0.377846  -0.036233   0.002593  -0.000881   0.000255   0.000000
    25  H    0.002646   0.000178   0.002384   0.000001   0.000000   0.000000
    26  H   -0.026357   0.001847   0.000271  -0.000143   0.000001   0.000000
             13         14         15         16         17         18
     1  F    0.000000   0.000000   0.000000   0.000000  -0.026646   0.000000
     2  F    0.000000   0.000000   0.000000   0.000000  -0.027453   0.000000
     3  C    0.000000   0.000000   0.000000   0.000000   0.276505   0.000000
     4  C    0.000000   0.000000  -0.000087   0.000001  -0.051820  -0.000002
     5  C    0.000000   0.000000   0.000011  -0.000003   0.000940   0.000005
     6  C    0.000000   0.000000   0.000292   0.000005  -0.000019  -0.000035
     7  C   -0.000077  -0.000023  -0.005163  -0.000212  -0.000001   0.000306
     8  C    0.007653   0.005571  -0.061380   0.001665   0.000195   0.000569
     9  C   -0.000045  -0.000075   0.002885  -0.000118   0.002417  -0.000013
    10  C   -0.043475  -0.033833   0.605576  -0.049455  -0.000002  -0.004360
    11  C    0.508176  -0.101458  -0.077279   0.001022   0.000000  -0.000139
    12  C   -0.050858   0.003774   0.003026  -0.000027   0.000000   0.000000
    13  N    6.733709   0.148241  -0.105655   0.001963   0.000000  -0.000029
    14  O    0.148241   8.282370   0.241837  -0.034248   0.000000   0.000985
    15  C   -0.105655   0.241837   4.471787   0.301668   0.000000  -0.026026
    16  N    0.001963  -0.034248   0.301668   7.033737   0.000000   0.303591
    17  F    0.000000   0.000000   0.000000   0.000000   9.200209   0.000000
    18  H   -0.000029   0.000985  -0.026026   0.303591   0.000000   0.373831
    19  H   -0.000070   0.000156  -0.028772   0.308802   0.000000  -0.017696
    20  H    0.000587  -0.000047  -0.000109  -0.000001   0.000000   0.000000
    21  H    0.000341  -0.000060   0.000017   0.000000   0.000000   0.000000
    22  H    0.001496  -0.000077   0.000044   0.000000   0.000000   0.000000
    23  H   -0.000040  -0.000004   0.000119  -0.000002   0.000580   0.000001
    24  H    0.000000  -0.000069   0.001483   0.000177   0.000000   0.002371
    25  H    0.000000   0.000000   0.000000   0.000000   0.000220   0.000000
    26  H    0.000000   0.000000  -0.000006   0.000000   0.000000   0.000001
             19         20         21         22         23         24
     1  F    0.000000   0.000000   0.000000   0.000000   0.000013   0.000000
     2  F    0.000000   0.000000   0.000007   0.000000   0.000584   0.000000
     3  C    0.000000  -0.000002  -0.000006   0.000000  -0.000022   0.000005
     4  C    0.000000  -0.000057   0.000145   0.000001  -0.027678   0.000175
     5  C    0.000000  -0.000009   0.000001   0.000000   0.002379   0.002414
     6  C    0.000000  -0.000004   0.000000   0.000000   0.000088  -0.027091
     7  C    0.000015   0.000174  -0.000037   0.000000   0.002246   0.377846
     8  C   -0.000120   0.001740  -0.000882  -0.000010  -0.028476  -0.036233
     9  C    0.000003   0.000244  -0.000219   0.000120   0.372293   0.002593
    10  C    0.002673  -0.002030  -0.000370   0.002783   0.000556  -0.000881
    11  C    0.000026  -0.038610  -0.040745  -0.036876   0.001472   0.000255
    12  C    0.000001   0.386658   0.388200   0.389725  -0.000690   0.000000
    13  N   -0.000070   0.000587   0.000341   0.001496  -0.000040   0.000000
    14  O    0.000156  -0.000047  -0.000060  -0.000077  -0.000004  -0.000069
    15  C   -0.028772  -0.000109   0.000017   0.000044   0.000119   0.001483
    16  N    0.308802  -0.000001   0.000000   0.000000  -0.000002   0.000177
    17  F    0.000000   0.000000   0.000000   0.000000   0.000580   0.000000
    18  H   -0.017696   0.000000   0.000000   0.000000   0.000001   0.002371
    19  H    0.361173   0.000000   0.000000   0.000000   0.000000   0.000027
    20  H    0.000000   0.505043  -0.026518  -0.020547  -0.000017  -0.000001
    21  H    0.000000  -0.026518   0.514528  -0.020982   0.000735   0.000000
    22  H    0.000000  -0.020547  -0.020982   0.469059   0.000011   0.000000
    23  H    0.000000  -0.000017   0.000735   0.000011   0.435542  -0.000099
    24  H    0.000027  -0.000001   0.000000   0.000000  -0.000099   0.476387
    25  H    0.000000   0.000000   0.000000   0.000000  -0.000104  -0.000099
    26  H    0.000000   0.000000   0.000000   0.000000   0.000010  -0.001006
             25         26
     1  F    0.006675   0.000000
     2  F    0.000220   0.000000
     3  C   -0.004289  -0.000068
     4  C   -0.030278   0.001901
     5  C    0.380958  -0.028117
     6  C   -0.029004   0.380533
     7  C    0.002646  -0.026357
     8  C    0.000178   0.001847
     9  C    0.002384   0.000271
    10  C    0.000001  -0.000143
    11  C    0.000000   0.000001
    12  C    0.000000   0.000000
    13  N    0.000000   0.000000
    14  O    0.000000   0.000000
    15  C    0.000000  -0.000006
    16  N    0.000000   0.000000
    17  F    0.000220   0.000000
    18  H    0.000000   0.000001
    19  H    0.000000   0.000000
    20  H    0.000000   0.000000
    21  H    0.000000   0.000000
    22  H    0.000000   0.000000
    23  H   -0.000104   0.000010
    24  H   -0.000099  -0.001006
    25  H    0.426481  -0.001432
    26  H   -0.001432   0.454191
 Mulliken atomic charges:
              1
     1  F   -0.384551
     2  F   -0.378057
     3  C    1.218143
     4  C   -0.196636
     5  C   -0.209912
     6  C   -0.196345
     7  C   -0.200328
     8  C    0.052308
     9  C   -0.200670
    10  C   -0.264332
    11  C    0.318950
    12  C   -0.516747
    13  N   -0.201918
    14  O   -0.513039
    15  C    0.675733
    16  N   -0.868567
    17  F   -0.375125
    18  H    0.366643
    19  H    0.373782
    20  H    0.193505
    21  H    0.185846
    22  H    0.215253
    23  H    0.240503
    24  H    0.201746
    25  H    0.245442
    26  H    0.218374
 Sum of Mulliken atomic charges =   0.00000
 Mulliken charges with hydrogens summed into heavy atoms:
              1
     1  F   -0.384551
     2  F   -0.378057
     3  C    1.218143
     4  C   -0.196636
     5  C    0.035529
     6  C    0.022029
     7  C    0.001418
     8  C    0.052308
     9  C    0.039833
    10  C   -0.264332
    11  C    0.318950
    12  C    0.077856
    13  N   -0.201918
    14  O   -0.513039
    15  C    0.675733
    16  N   -0.128142
    17  F   -0.375125
 Sum of Mulliken charges with hydrogens summed into heavy atoms =   0.00000
 DipInt: DoE/N= T F RetVal/Mat= T F Init=T NMatP=  1 IDeriv=0 Min/MaxMlt=  0  4
 Entering OneElI...
 OneElI was handed    33361185 working-precision words.
 Multipole integrals L=0 to 4 MinM= 0 MaxM= 0.
 Requested accuracy = 0.1000D-12
 PrsmSu:  NPrtUS=   1 ThrOK=F IAlg=1 NPAlg=1 LenDen=           0.
 Prism:   IPart=     0 DynPar=F LinDyn=F Incr=          30.
 PRISM was handed    33073899 working-precision words and  3048 shell-pairs
 IPart=  0 NShTot=        3048 NBatch=          45 AvBLen=        67.7
 PrSmSu:  NxtVal=             31.
 Electronic moments (au):
       -124.00000000          0.03551388         -1.31290909         -0.79794582
      -3364.55966481       -899.19853417       -351.28594286         -8.07247344
          1.00628867          2.49088186        424.61505292        -22.41685046
       -127.59270420      -1108.52213104      -1055.93100751      -1793.65070581
        244.89748467        174.89924098        687.21041077       1103.09293273
    -149479.73675665     -16247.57496046      -3062.15074898       2920.07707362
      -1958.91989563       -845.09429872       1118.24583816       1299.65631726
       -177.13138408     -18607.13579770      -8606.32179562      -3536.85715454
       2225.40492289      -1094.85701041        529.41021369
 Electronic spatial extent (au):  <R**2>=           4615.0441
 DipInt: DoE/N= F T RetVal/Mat= T F Init=T NMatP=  1 IDeriv=0 Min/MaxMlt=  0  4
 Nuclear    moments (au):
        124.00000000          0.00000000          0.00000000          0.00000000
       3282.68062546        835.09950373        277.99129612          0.00000000
          0.00000000          0.00000000       -528.64478670          7.38608964
        137.95080714       1105.73025567        952.95476983       1803.33248566
       -268.34369239       -166.43033024       -701.46054324      -1115.18954138
     138259.55118303      13403.13462708       1905.58765585      -3778.14854050
       2122.10408110        578.06637894      -1049.94524224      -1352.04104958
        202.20330917      16488.83246126       6670.56739965       2860.70716654
      -2286.64964441       1081.52575209       -549.36296015
 Total      moments (au):
          0.00000000          0.03551388         -1.31290909         -0.79794582
        -81.87903935        -64.09903044        -73.29464674         -8.07247344
          1.00628867          2.49088186       -104.02973378        -15.03076083
         10.35810294         -2.79187537       -102.97623769          9.68177985
        -23.44620771          8.46891074        -14.25013247        -12.09660864
     -11220.18557362      -2844.44033338      -1156.56309313       -858.07146688
        163.18418546       -267.02791978         68.30059592        -52.38473232
         25.07192509      -2118.30333644      -1935.75439597       -676.14998800
        -61.24472152        -13.33125832        -19.95274645
 Traceless Quadrup. (au):
         -8.78813384          8.99187507         -0.20374123         -8.07247344
          1.00628867          2.49088186
 Charge=              0.0000 electrons
 Dipole moment (field-independent basis, Debye):
    X=              0.0903    Y=             -3.3371    Z=             -2.0282  Tot=              3.9061
 Quadrupole moment (field-independent basis, Debye-Ang):
   XX=           -110.1301   YY=            -86.2154   ZZ=            -98.5838
   XY=            -10.8578   XZ=              1.3535   YZ=              3.3503
 Traceless Quadrupole moment (field-independent basis, Debye-Ang):
   XX=            -11.8203   YY=             12.0944   ZZ=             -0.2740
   XY=            -10.8578   XZ=              1.3535   YZ=              3.3503
 Octapole moment (field-independent basis, Debye-Ang**2):
  XXX=            -74.0444  YYY=            -10.6983  ZZZ=              7.3725  XYY=             -1.9871
  XXY=            -73.2945  XXZ=              6.8911  XZZ=            -16.6881  YZZ=              6.0278
  YYZ=            -10.1427  XYZ=             -8.6099
 Hexadecapole moment (field-independent basis, Debye-Ang**3):
 XXXX=          -4226.0596 YYYY=          -1071.3526 ZZZZ=           -435.6171 XXXY=           -323.1908
 XXXZ=             61.4630 YYYX=           -100.5755 YYYZ=             25.7253 ZZZX=            -19.7306
 ZZZY=              9.4433 XXYY=           -797.8546 XXZZ=           -729.0979 YYZZ=           -254.6705
 XXYZ=            -23.0677 YYXZ=             -5.0212 ZZXY=             -7.5152
 N-N= 1.193919883287D+03 E-N=-4.514651600733D+03  KE= 9.010220052369D+02
 Entering OneElI...
 OneElI was handed    33211204 working-precision words.
 Calculate electrostatic properties
    NBasis =   273  MinDer = 0  MaxDer = 0
    NGrid  =    26  NMatD  =   1
 Requested accuracy = 0.1000D-12
 PrsmSu:  NPrtUS=   1 ThrOK=F IAlg=1 NPAlg=1 LenDen=           0.
 Prism:   IPart=     0 DynPar=F LinDyn=F Incr=         512.
 PRISM was handed    32946815 working-precision words and  2780 shell-pairs
 IPart=  0 NShTot=       72280 NBatch=        2780 AvBLen=        26.0
 PrSmSu:  NxtVal=            513.
 --------------------------------------------------------
       Center         ----      EFG at Nuclei      ----
                      3XX-RR        3YY-RR        3ZZ-RR
 --------------------------------------------------------
     1   Atom       -0.966106      0.045902      0.920203
     2   Atom        1.511144     -2.212536      0.701392
     3   Atom        0.288243     -0.114075     -0.174168
     4   Atom        0.054252      0.062866     -0.117118
     5   Atom        0.193351      0.025546     -0.218897
     6   Atom        0.197578      0.006199     -0.203777
     7   Atom        0.172579      0.036537     -0.209116
     8   Atom        0.147469      0.048806     -0.196275
     9   Atom        0.162389      0.032258     -0.194647
    10   Atom        0.023141     -0.005273     -0.017867
    11   Atom        0.133715      0.162959     -0.296673
    12   Atom        0.034811     -0.045257      0.010446
    13   Atom        0.470310     -0.409231     -0.061079
    14   Atom        0.455770     -1.361207      0.905437
    15   Atom        0.157960     -0.009414     -0.148546
    16   Atom        0.186138     -0.698357      0.512220
    17   Atom        1.521043      1.417753     -2.938795
    18   Atom        0.089529     -0.048929     -0.040600
    19   Atom       -0.183825      0.076181      0.107644
    20   Atom        0.080526      0.100970     -0.181496
    21   Atom       -0.087143      0.102037     -0.014894
    22   Atom       -0.026450     -0.107903      0.134353
    23   Atom        0.135753     -0.182226      0.046473
    24   Atom       -0.154404      0.035481      0.118924
    25   Atom       -0.228146      0.090987      0.137159
    26   Atom        0.137423     -0.169910      0.032486
 --------------------------------------------------------
                        XY            XZ            YZ
 --------------------------------------------------------
     1   Atom       -1.900784     -1.151628     -0.832139
     2   Atom        0.092891     -0.141083      1.629418
     3   Atom       -0.254204     -0.158908      0.066440
     4   Atom        0.083456      0.049245      0.172031
     5   Atom       -0.011198     -0.008546      0.243140
     6   Atom       -0.015384     -0.002362      0.221222
     7   Atom        0.040886      0.018877      0.220699
     8   Atom       -0.003487     -0.011376      0.205241
     9   Atom       -0.016368     -0.003409      0.201605
    10   Atom        0.056111      0.017915     -0.010990
    11   Atom        0.036607      0.114759     -0.216891
    12   Atom        0.073419     -0.026935      0.050621
    13   Atom        0.941724     -0.324427      0.493394
    14   Atom       -0.481220      0.027815      0.920160
    15   Atom       -0.150191      0.152974     -0.088219
    16   Atom        0.076664     -0.742163      0.045232
    17   Atom       -0.084889      0.114662     -0.234892
    18   Atom       -0.049270     -0.083655     -0.147868
    19   Atom        0.052586     -0.089481      0.010773
    20   Atom       -0.046140     -0.150651     -0.108846
    21   Atom        0.097850      0.193948     -0.071493
    22   Atom       -0.200852      0.040683      0.056115
    23   Atom       -0.043858     -0.022851     -0.205713
    24   Atom        0.189732      0.108024     -0.079490
    25   Atom       -0.140810     -0.084199     -0.044164
    26   Atom       -0.046610     -0.029628     -0.212343
 --------------------------------------------------------


 ---------------------------------------------------------------------------------
              Nuclear Quadrupole in Principal Axis System
 ---------------------------------------------------------------------------------

       Atom             a.u.   MegaHertz   Gauss  10(-4) cm-1        Axes

              Baa    -2.9485 -1480.805  -528.388  -493.943  0.7463  0.5695  0.3446
     1 F(19)  Bbb     1.4230   714.667   255.011   238.387  0.0110 -0.5282  0.8490
              Bcc     1.5255   766.138   273.377   255.556  0.6656 -0.6298 -0.4005
 
              Baa    -2.9459 -1479.521  -527.930  -493.515 -0.0319  0.9121 -0.4087
     2 F(19)  Bbb     1.3726   689.356   245.979   229.944  0.5355  0.3609  0.7635
              Bcc     1.5733   790.165   281.950   263.571  0.8439 -0.1945 -0.5000
 
              Baa    -0.2412   -32.363   -11.548   -10.795  0.4914  0.7756  0.3962
     3 C(13)  Bbb    -0.2169   -29.102   -10.384    -9.708  0.0384 -0.4738  0.8798
              Bcc     0.4580    61.465    21.932    20.503  0.8701 -0.4171 -0.2625
 
              Baa    -0.2213   -29.693   -10.595    -9.905  0.0044 -0.5188  0.8549
     4 C(13)  Bbb    -0.0015    -0.197    -0.070    -0.066  0.8669 -0.4242 -0.2619
              Bcc     0.2227    29.890    10.666     9.970  0.4985  0.7422  0.4479
 
              Baa    -0.3688   -49.491   -17.660   -16.508  0.0025 -0.5248  0.8512
     5 C(13)  Bbb     0.1678    22.514     8.033     7.510  0.4805  0.7472  0.4592
              Bcc     0.2010    26.977     9.626     8.999  0.8770 -0.4079 -0.2540
 
              Baa    -0.3437   -46.125   -16.459   -15.386 -0.0115 -0.5347  0.8450
     6 C(13)  Bbb     0.1424    19.109     6.818     6.374  0.2500  0.8167  0.5202
              Bcc     0.2013    27.017     9.640     9.012  0.9682 -0.2172 -0.1243
 
              Baa    -0.3389   -45.478   -16.228   -15.170  0.0088 -0.5075  0.8616
     7 C(13)  Bbb     0.1245    16.711     5.963     5.574  0.6817 -0.6274 -0.3764
              Bcc     0.2144    28.767    10.265     9.596  0.7316  0.5907  0.3404
 
              Baa    -0.3129   -41.991   -14.983   -14.007  0.0178 -0.4933  0.8697
     8 C(13)  Bbb     0.1441    19.335     6.899     6.450  0.9259  0.3364  0.1719
              Bcc     0.1688    22.655     8.084     7.557 -0.3774  0.8022  0.4627
 
              Baa    -0.3126   -41.947   -14.968   -13.992 -0.0112 -0.5051  0.8630
     9 C(13)  Bbb     0.1393    18.692     6.670     6.235  0.5648  0.7090  0.4223
              Bcc     0.1733    23.255     8.298     7.757  0.8252 -0.4921 -0.2773
 
              Baa    -0.0586    -7.859    -2.804    -2.621 -0.5721  0.6929  0.4389
    10 C(13)  Bbb    -0.0089    -1.196    -0.427    -0.399  0.2011 -0.4003  0.8940
              Bcc     0.0675     9.055     3.231     3.020  0.7952  0.5997  0.0897
 
              Baa    -0.4094   -54.944   -19.605   -18.327 -0.2160  0.3580  0.9084
    11 C(13)  Bbb     0.1596    21.411     7.640     7.142  0.9723  0.1639  0.1667
              Bcc     0.2499    33.533    11.965    11.185 -0.0892  0.9192 -0.3835
 
              Baa    -0.1150   -15.433    -5.507    -5.148 -0.4594  0.7851 -0.4154
    12 C(13)  Bbb     0.0365     4.892     1.746     1.632 -0.2618  0.3272  0.9080
              Bcc     0.0785    10.541     3.761     3.516  0.8488  0.5259  0.0552
 
              Baa    -1.2920   -49.830   -17.781   -16.622 -0.4856  0.7597 -0.4325
    13 N(14)  Bbb     0.2221     8.564     3.056     2.857 -0.2245  0.3698  0.9016
              Bcc     1.0700    41.266    14.725    13.765  0.8449  0.5349 -0.0090
 
              Baa    -1.7836   129.062    46.053    43.050  0.2029  0.9258 -0.3189
    14 O(17)  Bbb     0.5268   -38.116   -13.601   -12.714  0.9622 -0.1280  0.2405
              Bcc     1.2569   -90.946   -32.452   -30.336 -0.1818  0.3556  0.9168
 
              Baa    -0.2160   -28.988   -10.344    -9.669 -0.3134  0.1710  0.9341
    15 C(13)  Bbb    -0.0976   -13.103    -4.675    -4.371  0.5021  0.8648  0.0101
              Bcc     0.3137    42.091    15.019    14.040  0.8060 -0.4722  0.3569
 
              Baa    -0.7233   -27.895    -9.954    -9.305 -0.2156  0.9625 -0.1647
    16 N(14)  Bbb    -0.3859   -14.882    -5.310    -4.964  0.7486  0.2712  0.6050
              Bcc     1.1091    42.777    15.264    14.269 -0.6270 -0.0071  0.7790
 
              Baa    -2.9541 -1483.637  -529.399  -494.888 -0.0246  0.0532  0.9983
    17 F(19)  Bbb     1.3749   690.501   246.388   230.326  0.5210  0.8530 -0.0326
              Bcc     1.5792   793.136   283.011   264.562  0.8532 -0.5193  0.0487
 
              Baa    -0.2211  -117.971   -42.095   -39.351  0.2903  0.6699  0.6833
    18 H(1)   Bbb     0.0850    45.339    16.178    15.123 -0.5679  0.6953 -0.4404
              Bcc     0.1361    72.632    25.917    24.227  0.7702  0.2602 -0.5823
 
              Baa    -0.2188  -116.752   -41.660   -38.944  0.9474 -0.1786  0.2656
    19 H(1)   Bbb     0.0856    45.662    16.293    15.231  0.1493  0.9806  0.1267
              Bcc     0.1332    71.090    25.367    23.713 -0.2831 -0.0804  0.9557
 
              Baa    -0.2862  -152.707   -54.490   -50.938  0.3946  0.2920  0.8712
    20 H(1)   Bbb     0.1363    72.744    25.957    24.265 -0.3255  0.9311 -0.1646
              Bcc     0.1499    79.963    28.533    26.673  0.8592  0.2187 -0.4625
 
              Baa    -0.2860  -152.603   -54.453   -50.903  0.7376 -0.2977 -0.6061
    21 H(1)   Bbb     0.1351    72.079    25.720    24.043 -0.1517  0.8017 -0.5782
              Bcc     0.1509    80.524    28.733    26.860  0.6580  0.5184  0.5461
 
              Baa    -0.2836  -151.301   -53.988   -50.469  0.6232  0.7648 -0.1634
    22 H(1)   Bbb     0.1361    72.636    25.918    24.229  0.7564 -0.5365  0.3742
              Bcc     0.1474    78.665    28.070    26.240 -0.1985  0.3568  0.9129
 
              Baa    -0.3087  -164.720   -58.776   -54.945  0.1104  0.8570  0.5034
    23 H(1)   Bbb     0.1410    75.231    26.844    25.094  0.9894 -0.0467 -0.1376
              Bcc     0.1677    89.489    31.932    29.850  0.0944 -0.5133  0.8530
 
              Baa    -0.3130  -167.012   -59.594   -55.709  0.8090 -0.5079 -0.2958
    24 H(1)   Bbb     0.1455    77.619    27.696    25.891  0.5795  0.6053  0.5457
              Bcc     0.1675    89.393    31.898    29.818 -0.0981 -0.6129  0.7840
 
              Baa    -0.3017  -160.974   -57.439   -53.695  0.9125  0.3509  0.2104
    25 H(1)   Bbb     0.1378    73.517    26.233    24.523 -0.4090  0.7729  0.4851
              Bcc     0.1639    87.457    31.207    29.173  0.0076 -0.5287  0.8488
 
              Baa    -0.3107  -165.797   -59.161   -55.304  0.1223  0.8393  0.5298
    26 H(1)   Bbb     0.1442    76.953    27.459    25.669  0.9925 -0.1076 -0.0586
              Bcc     0.1665    88.844    31.702    29.635 -0.0078 -0.5330  0.8461
 

 ---------------------------------------------------------------------------------

 No NMR shielding tensors so no spin-rotation constants.
 Leave Link  601 at Wed Nov 29 16:17:46 2017, MaxMem=   33554432 cpu:       0.4
 Merz-Kollman atomic radii used.
 Atom Element Radius
    1     9    1.35
    2     9    1.35
    3     6    1.50
    4     6    1.50
    5     6    1.50
    6     6    1.50
    7     6    1.50
    8     6    1.50
    9     6    1.50
   10     6    1.50
   11     6    1.50
   12     6    1.50
   13     7    1.50
   14     8    1.40
   15     6    1.50
   16     7    1.50
   17     9    1.35
   18     1    1.20
   19     1    1.20
   20     1    1.20
   21     1    1.20
   22     1    1.20
   23     1    1.20
   24     1    1.20
   25     1    1.20
   26     1    1.20
 Generate VDW surfaces: Layer= 4 Dens= 6 Start= 1.400 Inc= 0.200

 **********************************************************************

            Electrostatic Properties Using The SCF Density

 **********************************************************************

       Atomic Center    1 is at  -4.192442 -0.351966 -0.089974
       Atomic Center    2 is at  -3.242024  1.653069 -0.171003
       Atomic Center    3 is at  -3.162540  0.407730  0.369500
       Atomic Center    4 is at  -1.839253 -0.236103 -0.031590
       Atomic Center    5 is at  -1.966918 -1.407988 -0.749680
       Atomic Center    6 is at  -0.872051 -2.125527 -1.197568
       Atomic Center    7 is at   0.412102 -1.654488 -0.893701
       Atomic Center    8 is at   0.565084 -0.458036 -0.157376
       Atomic Center    9 is at  -0.560046  0.251841  0.259878
       Atomic Center   10 is at   1.868179  0.042845  0.047357
       Atomic Center   11 is at   2.324149  1.312487 -0.358742
       Atomic Center   12 is at   1.573262  2.468150 -0.997900
       Atomic Center   13 is at   3.623203  1.471973 -0.105897
       Atomic Center   14 is at   4.063922  0.270232  0.456735
       Atomic Center   15 is at   3.009455 -0.599236  0.532594
       Atomic Center   16 is at   3.136586 -2.013314  1.118238
       Atomic Center   17 is at  -3.231669  0.495334  1.724001
       Atomic Center   18 is at   2.825114 -2.751712  0.364775
       Atomic Center   19 is at   4.182635 -2.198474  1.404387
       Atomic Center   20 is at   1.144005  2.140818 -1.956228
       Atomic Center   21 is at   0.765916  2.796932 -0.326627
       Atomic Center   22 is at   2.266627  3.303425 -1.173125
       Atomic Center   23 is at  -0.445486  1.179339  0.808711
       Atomic Center   24 is at   1.285116 -2.206797 -1.222666
       Atomic Center   25 is at  -2.961300 -1.778881 -0.970654
       Atomic Center   26 is at  -1.005848 -3.035103 -1.772684
      ESP Fit Center   27 is at  -5.012482 -0.351966  1.612858
      ESP Fit Center   28 is at  -4.902618 -0.761987  1.612858
      ESP Fit Center   29 is at  -4.602462 -1.062142  1.612858
      ESP Fit Center   30 is at  -4.192442 -1.172007  1.612858
      ESP Fit Center   31 is at  -5.095146  0.405492  1.387688
      ESP Fit Center   32 is at  -5.299772  0.051069  1.387688
      ESP Fit Center   33 is at  -5.370838 -0.351966  1.387688
      ESP Fit Center   34 is at  -5.299772 -0.755002  1.387688
      ESP Fit Center   35 is at  -5.095146 -1.109425  1.387688
      ESP Fit Center   36 is at  -4.781640 -1.372487  1.387688
      ESP Fit Center   37 is at  -4.397068 -1.512460  1.387688
      ESP Fit Center   38 is at  -3.987816 -1.512460  1.387688
      ESP Fit Center   39 is at  -5.160105  0.764776  1.088422
      ESP Fit Center   40 is at  -5.435530  0.446918  1.088422
      ESP Fit Center   41 is at  -5.610248  0.064339  1.088422
      ESP Fit Center   42 is at  -5.670104 -0.351966  1.088422
      ESP Fit Center   43 is at  -5.610248 -0.768272  1.088422
      ESP Fit Center   44 is at  -5.435530 -1.150851  1.088422
      ESP Fit Center   45 is at  -5.160105 -1.468709  1.088422
      ESP Fit Center   46 is at  -4.806285 -1.696095  1.088422
      ESP Fit Center   47 is at  -4.402735 -1.814588  1.088422
      ESP Fit Center   48 is at  -3.982149 -1.814588  1.088422
      ESP Fit Center   49 is at  -3.578599 -1.696095  1.088422
      ESP Fit Center   50 is at  -5.159760  1.049436  0.730067
      ESP Fit Center   51 is at  -5.467029  0.777219  0.730067
      ESP Fit Center   52 is at  -5.700224  0.439379  0.730067
      ESP Fit Center   53 is at  -5.845792  0.055548  0.730067
      ESP Fit Center   54 is at  -5.895273 -0.351966  0.730067
      ESP Fit Center   55 is at  -5.845792 -0.759481  0.730067
      ESP Fit Center   56 is at  -5.700224 -1.143312  0.730067
      ESP Fit Center   57 is at  -5.467029 -1.481152  0.730067
      ESP Fit Center   58 is at  -5.159760 -1.753369  0.730067
      ESP Fit Center   59 is at  -4.796274 -1.944141  0.730067
      ESP Fit Center   60 is at  -4.397696 -2.042382  0.730067
      ESP Fit Center   61 is at  -3.987188 -2.042382  0.730067
      ESP Fit Center   62 is at  -3.588610 -1.944141  0.730067
      ESP Fit Center   63 is at  -5.341293  1.088647  0.330591
      ESP Fit Center   64 is at  -5.633055  0.796884  0.330591
      ESP Fit Center   65 is at  -5.852580  0.447514  0.330591
      ESP Fit Center   66 is at  -5.988858  0.058054  0.330591
      ESP Fit Center   67 is at  -6.035056 -0.351966  0.330591
      ESP Fit Center   68 is at  -5.988858 -0.761987  0.330591
      ESP Fit Center   69 is at  -5.852580 -1.151447  0.330591
      ESP Fit Center   70 is at  -5.633055 -1.500817  0.330591
      ESP Fit Center   71 is at  -5.341293 -1.792580  0.330591
      ESP Fit Center   72 is at  -4.991922 -2.012104  0.330591
      ESP Fit Center   73 is at  -4.602462 -2.148382  0.330591
      ESP Fit Center   74 is at  -4.192442 -2.194580  0.330591
      ESP Fit Center   75 is at  -5.253086  1.212366 -0.089974
      ESP Fit Center   76 is at  -5.564574  0.947786 -0.089974
      ESP Fit Center   77 is at  -5.811902  0.622430 -0.089974
      ESP Fit Center   78 is at  -5.983507  0.251513 -0.089974
      ESP Fit Center   79 is at  -6.071363 -0.147622 -0.089974
      ESP Fit Center   80 is at  -6.071363 -0.556311 -0.089974
      ESP Fit Center   81 is at  -5.983507 -0.955446 -0.089974
      ESP Fit Center   82 is at  -5.811902 -1.326363 -0.089974
      ESP Fit Center   83 is at  -5.564574 -1.651718 -0.089974
      ESP Fit Center   84 is at  -5.253086 -1.916299 -0.089974
      ESP Fit Center   85 is at  -4.892003 -2.107732 -0.089974
      ESP Fit Center   86 is at  -4.498210 -2.217069 -0.089974
      ESP Fit Center   87 is at  -5.341293  1.088647 -0.510538
      ESP Fit Center   88 is at  -5.633055  0.796884 -0.510538
      ESP Fit Center   89 is at  -5.852580  0.447514 -0.510538
      ESP Fit Center   90 is at  -5.988858  0.058054 -0.510538
      ESP Fit Center   91 is at  -6.035056 -0.351966 -0.510538
      ESP Fit Center   92 is at  -5.988858 -0.761987 -0.510538
      ESP Fit Center   93 is at  -5.852580 -1.151447 -0.510538
      ESP Fit Center   94 is at  -5.633055 -1.500817 -0.510538
      ESP Fit Center   95 is at  -5.341293 -1.792580 -0.510538
      ESP Fit Center   96 is at  -4.991922 -2.012104 -0.510538
      ESP Fit Center   97 is at  -4.602462 -2.148382 -0.510538
      ESP Fit Center   98 is at  -5.159760  1.049436 -0.910014
      ESP Fit Center   99 is at  -5.467029  0.777219 -0.910014
      ESP Fit Center  100 is at  -5.700224  0.439379 -0.910014
      ESP Fit Center  101 is at  -5.845792  0.055548 -0.910014
      ESP Fit Center  102 is at  -5.895273 -0.351966 -0.910014
      ESP Fit Center  103 is at  -5.845792 -0.759481 -0.910014
      ESP Fit Center  104 is at  -5.700224 -1.143312 -0.910014
      ESP Fit Center  105 is at  -5.467029 -1.481152 -0.910014
      ESP Fit Center  106 is at  -5.159760 -1.753369 -0.910014
      ESP Fit Center  107 is at  -4.796274 -1.944141 -0.910014
      ESP Fit Center  108 is at  -4.806285  0.992162 -1.268369
      ESP Fit Center  109 is at  -5.160105  0.764776 -1.268369
      ESP Fit Center  110 is at  -5.435530  0.446918 -1.268369
      ESP Fit Center  111 is at  -5.610248  0.064339 -1.268369
      ESP Fit Center  112 is at  -5.670104 -0.351966 -1.268369
      ESP Fit Center  113 is at  -5.610248 -0.768272 -1.268369
      ESP Fit Center  114 is at  -5.435530 -1.150851 -1.268369
      ESP Fit Center  115 is at  -5.160105 -1.468709 -1.268369
      ESP Fit Center  116 is at  -4.806285 -1.696095 -1.268369
      ESP Fit Center  117 is at  -4.397068  0.808527 -1.567635
      ESP Fit Center  118 is at  -4.781640  0.668554 -1.567635
      ESP Fit Center  119 is at  -5.095146  0.405492 -1.567635
      ESP Fit Center  120 is at  -5.299772  0.051069 -1.567635
      ESP Fit Center  121 is at  -5.370838 -0.351966 -1.567635
      ESP Fit Center  122 is at  -5.299772 -0.755002 -1.567635
      ESP Fit Center  123 is at  -5.095146 -1.109425 -1.567635
      ESP Fit Center  124 is at  -4.781640 -1.372487 -1.567635
      ESP Fit Center  125 is at  -3.482266  0.058054 -1.792805
      ESP Fit Center  126 is at  -3.782422  0.358209 -1.792805
      ESP Fit Center  127 is at  -4.192442  0.468074 -1.792805
      ESP Fit Center  128 is at  -4.602462  0.358209 -1.792805
      ESP Fit Center  129 is at  -4.902618  0.058054 -1.792805
      ESP Fit Center  130 is at  -5.012482 -0.351966 -1.792805
      ESP Fit Center  131 is at  -4.902618 -0.761987 -1.792805
      ESP Fit Center  132 is at  -4.602462 -1.062142 -1.792805
      ESP Fit Center  133 is at  -3.771877 -0.351966 -1.932587
      ESP Fit Center  134 is at  -3.982160  0.012253 -1.932587
      ESP Fit Center  135 is at  -4.402724  0.012253 -1.932587
      ESP Fit Center  136 is at  -4.613007 -0.351966 -1.932587
      ESP Fit Center  137 is at  -4.402724 -0.716186 -1.932587
      ESP Fit Center  138 is at  -3.982160 -0.716186 -1.932587
      ESP Fit Center  139 is at  -4.192442 -0.351966 -1.979974
      ESP Fit Center  140 is at  -2.832003  2.363245  1.531828
      ESP Fit Center  141 is at  -3.242024  2.473109  1.531828
      ESP Fit Center  142 is at  -3.652044  2.363245  1.531828
      ESP Fit Center  143 is at  -2.134694  2.056104  1.306658
      ESP Fit Center  144 is at  -2.339320  2.410527  1.306658
      ESP Fit Center  145 is at  -2.652826  2.673590  1.306658
      ESP Fit Center  146 is at  -3.037397  2.813562  1.306658
      ESP Fit Center  147 is at  -3.446650  2.813562  1.306658
      ESP Fit Center  148 is at  -3.831221  2.673590  1.306658
      ESP Fit Center  149 is at  -4.144727  2.410527  1.306658
      ESP Fit Center  150 is at  -4.349353  2.056104  1.306658
      ESP Fit Center  151 is at  -1.998936  2.451953  1.007393
      ESP Fit Center  152 is at  -2.274361  2.769811  1.007393
      ESP Fit Center  153 is at  -2.628181  2.997197  1.007393
      ESP Fit Center  154 is at  -3.031730  3.115690  1.007393
      ESP Fit Center  155 is at  -3.452317  3.115690  1.007393
      ESP Fit Center  156 is at  -3.855866  2.997197  1.007393
      ESP Fit Center  157 is at  -4.209686  2.769811  1.007393
      ESP Fit Center  158 is at  -4.485111  2.451953  1.007393
      ESP Fit Center  159 is at  -4.659829  2.069374  1.007393
      ESP Fit Center  160 is at  -1.734241  2.444414  0.649037
      ESP Fit Center  161 is at  -1.967436  2.782255  0.649037
      ESP Fit Center  162 is at  -2.274705  3.054471  0.649037
      ESP Fit Center  163 is at  -2.638191  3.245244  0.649037
      ESP Fit Center  164 is at  -3.036770  3.343485  0.649037
      ESP Fit Center  165 is at  -3.447277  3.343485  0.649037
      ESP Fit Center  166 is at  -3.845856  3.245244  0.649037
      ESP Fit Center  167 is at  -4.209342  3.054471  0.649037
      ESP Fit Center  168 is at  -4.516611  2.782255  0.649037
      ESP Fit Center  169 is at  -4.749806  2.444414  0.649037
      ESP Fit Center  170 is at  -4.895373  2.060583  0.649037
      ESP Fit Center  171 is at  -4.944855  1.653069  0.649037
      ESP Fit Center  172 is at  -1.581886  2.452549  0.249562
      ESP Fit Center  173 is at  -1.801410  2.801920  0.249562
      ESP Fit Center  174 is at  -2.093173  3.093682  0.249562
      ESP Fit Center  175 is at  -2.442543  3.313207  0.249562
      ESP Fit Center  176 is at  -2.832003  3.449484  0.249562
      ESP Fit Center  177 is at  -3.242024  3.495683  0.249562
      ESP Fit Center  178 is at  -3.652044  3.449484  0.249562
      ESP Fit Center  179 is at  -4.041504  3.313207  0.249562
      ESP Fit Center  180 is at  -4.390874  3.093682  0.249562
      ESP Fit Center  181 is at  -4.682637  2.801920  0.249562
      ESP Fit Center  182 is at  -4.902161  2.452549  0.249562
      ESP Fit Center  183 is at  -5.038439  2.063089  0.249562
      ESP Fit Center  184 is at  -5.084637  1.653069  0.249562
      ESP Fit Center  185 is at  -1.526706  2.446659 -0.171003
      ESP Fit Center  186 is at  -1.737408  2.796848 -0.171003
      ESP Fit Center  187 is at  -2.018463  3.093555 -0.171003
      ESP Fit Center  188 is at  -2.356732  3.322907 -0.171003
      ESP Fit Center  189 is at  -2.736395  3.474178 -0.171003
      ESP Fit Center  190 is at  -3.139701  3.540297 -0.171003
      ESP Fit Center  191 is at  -3.547791  3.518171 -0.171003
      ESP Fit Center  192 is at  -3.941585  3.408835 -0.171003
      ESP Fit Center  193 is at  -4.302667  3.217401 -0.171003
      ESP Fit Center  194 is at  -4.614155  2.952821 -0.171003
      ESP Fit Center  195 is at  -4.861484  2.627466 -0.171003
      ESP Fit Center  196 is at  -5.033088  2.256549 -0.171003
      ESP Fit Center  197 is at  -5.120944  1.857414 -0.171003
      ESP Fit Center  198 is at  -5.120944  1.448724 -0.171003
      ESP Fit Center  199 is at  -1.445608  2.063089 -0.591568
      ESP Fit Center  200 is at  -1.581886  2.452549 -0.591568
      ESP Fit Center  201 is at  -1.801410  2.801920 -0.591568
      ESP Fit Center  202 is at  -2.093173  3.093682 -0.591568
      ESP Fit Center  203 is at  -2.442543  3.313207 -0.591568
      ESP Fit Center  204 is at  -2.832003  3.449484 -0.591568
      ESP Fit Center  205 is at  -3.242024  3.495683 -0.591568
      ESP Fit Center  206 is at  -3.652044  3.449484 -0.591568
      ESP Fit Center  207 is at  -4.041504  3.313207 -0.591568
      ESP Fit Center  208 is at  -4.390874  3.093682 -0.591568
      ESP Fit Center  209 is at  -4.682637  2.801920 -0.591568
      ESP Fit Center  210 is at  -4.902161  2.452549 -0.591568
      ESP Fit Center  211 is at  -5.038439  2.063089 -0.591568
      ESP Fit Center  212 is at  -5.084637  1.653069 -0.591568
      ESP Fit Center  213 is at  -1.539192  1.653069 -0.991043
      ESP Fit Center  214 is at  -1.588674  2.060583 -0.991043
      ESP Fit Center  215 is at  -1.734241  2.444414 -0.991043
      ESP Fit Center  216 is at  -1.967436  2.782255 -0.991043
      ESP Fit Center  217 is at  -2.274705  3.054471 -0.991043
      ESP Fit Center  218 is at  -2.638191  3.245244 -0.991043
      ESP Fit Center  219 is at  -3.036770  3.343485 -0.991043
      ESP Fit Center  220 is at  -3.447277  3.343485 -0.991043
      ESP Fit Center  221 is at  -3.845856  3.245244 -0.991043
      ESP Fit Center  222 is at  -4.209342  3.054471 -0.991043
      ESP Fit Center  223 is at  -4.516611  2.782255 -0.991043
      ESP Fit Center  224 is at  -4.749806  2.444414 -0.991043
      ESP Fit Center  225 is at  -4.895373  2.060583 -0.991043
      ESP Fit Center  226 is at  -4.944855  1.653069 -0.991043
      ESP Fit Center  227 is at  -4.895373  1.245555 -0.991043
      ESP Fit Center  228 is at  -1.764362  1.653069 -1.349399
      ESP Fit Center  229 is at  -1.824218  2.069374 -1.349399
      ESP Fit Center  230 is at  -1.998936  2.451953 -1.349399
      ESP Fit Center  231 is at  -2.274361  2.769811 -1.349399
      ESP Fit Center  232 is at  -2.628181  2.997197 -1.349399
      ESP Fit Center  233 is at  -3.031730  3.115690 -1.349399
      ESP Fit Center  234 is at  -3.452317  3.115690 -1.349399
      ESP Fit Center  235 is at  -3.855866  2.997197 -1.349399
      ESP Fit Center  236 is at  -4.209686  2.769811 -1.349399
      ESP Fit Center  237 is at  -4.485111  2.451953 -1.349399
      ESP Fit Center  238 is at  -4.659829  2.069374 -1.349399
      ESP Fit Center  239 is at  -4.719685  1.653069 -1.349399
      ESP Fit Center  240 is at  -4.659829  1.236764 -1.349399
      ESP Fit Center  241 is at  -2.063628  1.653069 -1.648665
      ESP Fit Center  242 is at  -2.134694  2.056104 -1.648665
      ESP Fit Center  243 is at  -2.339320  2.410527 -1.648665
      ESP Fit Center  244 is at  -2.652826  2.673590 -1.648665
      ESP Fit Center  245 is at  -3.037397  2.813562 -1.648665
      ESP Fit Center  246 is at  -3.446650  2.813562 -1.648665
      ESP Fit Center  247 is at  -3.831221  2.673590 -1.648665
      ESP Fit Center  248 is at  -4.144727  2.410527 -1.648665
      ESP Fit Center  249 is at  -4.349353  2.056104 -1.648665
      ESP Fit Center  250 is at  -4.420419  1.653069 -1.648665
      ESP Fit Center  251 is at  -4.349353  1.250034 -1.648665
      ESP Fit Center  252 is at  -4.144727  0.895611 -1.648665
      ESP Fit Center  253 is at  -2.134694  1.250034 -1.648665
      ESP Fit Center  254 is at  -2.421983  1.653069 -1.873834
      ESP Fit Center  255 is at  -2.531848  2.063089 -1.873834
      ESP Fit Center  256 is at  -2.832003  2.363245 -1.873834
      ESP Fit Center  257 is at  -3.242024  2.473109 -1.873834
      ESP Fit Center  258 is at  -3.652044  2.363245 -1.873834
      ESP Fit Center  259 is at  -3.952199  2.063089 -1.873834
      ESP Fit Center  260 is at  -4.062064  1.653069 -1.873834
      ESP Fit Center  261 is at  -3.952199  1.243049 -1.873834
      ESP Fit Center  262 is at  -3.652044  0.942893 -1.873834
      ESP Fit Center  263 is at  -3.242024  0.833029 -1.873834
[...]
 7039 Fit       0.027337
 7040 Fit       0.028204
 7041 Fit       0.028875
 7042 Fit       0.029530
 7043 Fit       0.024284
 7044 Fit       0.026468
 7045 Fit       0.027900
 7046 Fit       0.028806
 7047 Fit       0.029381
 7048 Fit       0.029808
 7049 Fit       0.027794
 7050 Fit       0.029029
 7051 Fit       0.029673
 7052 Fit       0.029960
 7053 Fit       0.030084
 7054 Fit       0.029100
 7055 Fit       0.029979
 7056 Fit       0.030247
 7057 Fit       0.030146
 7058 Fit       0.030688
 7059 Fit       0.030758
 7060 Fit       0.030295
 7061 Fit       0.030709
 7062 Fit       0.008136
 7063 Fit       0.010823
 7064 Fit       0.010020
 7065 Fit       0.006398
 7066 Fit       0.015362
 7067 Fit       0.014572
 7068 Fit       0.012781
 7069 Fit       0.011376
 7070 Fit       0.007802
 7071 Fit       0.003631
 7072 Fit       0.018445
 7073 Fit       0.018395
 7074 Fit       0.017694
 7075 Fit       0.016318
 7076 Fit       0.014222
 7077 Fit       0.012243
 7078 Fit       0.008530
 7079 Fit       0.004132
 7080 Fit       0.021231
 7081 Fit       0.020991
 7082 Fit       0.020336
 7083 Fit       0.019207
 7084 Fit       0.017530
 7085 Fit       0.015231
 7086 Fit       0.012664
 7087 Fit       0.008818
 7088 Fit       0.004167
 7089 Fit       0.023614
 7090 Fit       0.023146
 7091 Fit       0.022456
 7092 Fit       0.021459
 7093 Fit       0.020070
 7094 Fit       0.018201
 7095 Fit       0.015763
 7096 Fit       0.012689
 7097 Fit       0.008455
 7098 Fit       0.003171
 7099 Fit       0.025929
 7100 Fit       0.025184
 7101 Fit       0.024413
 7102 Fit       0.023487
 7103 Fit       0.022293
 7104 Fit       0.020727
 7105 Fit       0.018683
 7106 Fit       0.016048
 7107 Fit       0.012380
 7108 Fit       0.007808
 7109 Fit       0.027037
 7110 Fit       0.026050
 7111 Fit       0.025081
 7112 Fit       0.023986
 7113 Fit       0.022641
 7114 Fit       0.020935
 7115 Fit       0.018750
 7116 Fit       0.015954
 7117 Fit       0.011816
 7118 Fit       0.006843
 7119 Fit       0.027708
 7120 Fit       0.026538
 7121 Fit       0.025422
 7122 Fit       0.024199
 7123 Fit       0.022738
 7124 Fit       0.020914
 7125 Fit       0.018599
 7126 Fit       0.015635
 7127 Fit       0.011101
 7128 Fit       0.005526
 7129 Fit       0.027040
 7130 Fit       0.025751
 7131 Fit       0.024406
 7132 Fit       0.022842
 7133 Fit       0.020910
 7134 Fit       0.018450
 7135 Fit       0.015271
 7136 Fit       0.010372
 7137 Fit       0.027529
 7138 Fit       0.026010
 7139 Fit       0.024527
 7140 Fit       0.022867
 7141 Fit       0.020842
 7142 Fit       0.018260
 7143 Fit       0.014883
 7144 Fit       0.009803
 7145 Fit       0.026033
 7146 Fit       0.024409
 7147 Fit       0.022665
 7148 Fit       0.020583
 7149 Fit       0.017942
 7150 Fit       0.014475
 7151 Fit       0.009595
 7152 Fit       0.022826
 7153 Fit       0.020680
 7154 Fit       0.017991
 7155 Fit       0.014440
 7156 Fit       0.018126
 7157 Fit       0.014652
 7158 Fit       0.003221
 7159 Fit       0.002362
 7160 Fit       0.001281
 7161 Fit       0.004581
 7162 Fit       0.004286
 7163 Fit       0.003902
 7164 Fit       0.003398
 7165 Fit       0.002777
 7166 Fit       0.002117
 7167 Fit       0.006930
 7168 Fit       0.004985
 7169 Fit       0.004927
 7170 Fit       0.004813
 7171 Fit       0.004642
 7172 Fit       0.004412
 7173 Fit       0.004145
 7174 Fit       0.003918
 7175 Fit       0.003879
 7176 Fit       0.007272
 7177 Fit       0.007311
 7178 Fit       0.006450
 7179 Fit       0.004944
 7180 Fit       0.003097
 7181 Fit       0.005082
 7182 Fit       0.005220
 7183 Fit       0.005302
 7184 Fit       0.005335
 7185 Fit       0.005329
 7186 Fit       0.005298
 7187 Fit       0.005281
 7188 Fit       0.005360
 7189 Fit       0.005650
 7190 Fit       0.006218
 7191 Fit       0.006914
 7192 Fit       0.007349
 7193 Fit       0.007168
 7194 Fit       0.006306
 7195 Fit       0.004955
 7196 Fit       0.003411
 7197 Fit       0.001996
 7198 Fit       0.002361
 7199 Fit       0.002409
 7200 Fit       0.004820
 7201 Fit       0.005135
 7202 Fit       0.005391
 7203 Fit       0.005593
 7204 Fit       0.005750
 7205 Fit       0.005877
 7206 Fit       0.005996
 7207 Fit       0.006149
 7208 Fit       0.006393
 7209 Fit       0.006756
 7210 Fit       0.007140
 7211 Fit       0.007294
 7212 Fit       0.006973
 7213 Fit       0.006139
 7214 Fit       0.004973
 7215 Fit       0.003770
 7216 Fit       0.002829
 7217 Fit       0.003729
 7218 Fit       0.003655
 7219 Fit       0.003933
 7220 Fit       0.004367
 7221 Fit       0.004815
 7222 Fit       0.005221
 7223 Fit       0.005572
 7224 Fit       0.005869
 7225 Fit       0.006122
 7226 Fit       0.006350
 7227 Fit       0.006582
 7228 Fit       0.006841
 7229 Fit       0.007092
 7230 Fit       0.007174
 7231 Fit       0.006875
 7232 Fit       0.006141
 7233 Fit       0.005162
 7234 Fit       0.004264
 7235 Fit       0.004806
 7236 Fit       0.004695
 7237 Fit       0.004967
 7238 Fit       0.005391
 7239 Fit       0.005820
 7240 Fit       0.006203
 7241 Fit       0.006534
 7242 Fit       0.006815
 7243 Fit       0.006980
 7244 Fit       0.006833
 7245 Fit       0.006233
 7246 Fit       0.005405
 7247 Fit       0.005617
 7248 Fit       0.005592
 7249 Fit       0.006027
 7250 Fit       0.006477
 7251 Fit       0.006652
 7252 Fit       0.006243
 7253 Fit       0.006172
 7254 Fit       0.000585
 7255 Fit       0.003877
 7256 Fit      -0.001228
 7257 Fit       0.001504
 7258 Fit       0.004042
 7259 Fit       0.000119
 7260 Fit       0.002164
 7261 Fit       0.003966
 7262 Fit       0.005902
 7263 Fit      -0.000251
 7264 Fit       0.001535
 7265 Fit       0.002979
 7266 Fit       0.004222
 7267 Fit       0.005509
 7268 Fit       0.000074
 7269 Fit       0.001583
 7270 Fit       0.002769
 7271 Fit       0.003691
 7272 Fit       0.004429
 7273 Fit       0.005161
 7274 Fit       0.000522
 7275 Fit       0.001750
 7276 Fit       0.002716
 7277 Fit       0.003434
 7278 Fit       0.003911
 7279 Fit       0.004174
 7280 Fit       0.004313
 7281 Fit       0.001525
 7282 Fit       0.002440
 7283 Fit       0.003140
 7284 Fit       0.003605
 7285 Fit       0.003811
 7286 Fit       0.003745
 7287 Fit       0.003424
 7288 Fit       0.001532
 7289 Fit       0.002314
 7290 Fit       0.002963
 7291 Fit       0.003437
 7292 Fit       0.003696
 7293 Fit       0.003706
 7294 Fit       0.003440
 7295 Fit       0.002892
 7296 Fit       0.002522
 7297 Fit       0.003041
 7298 Fit       0.003452
 7299 Fit       0.003700
 7300 Fit       0.003743
 7301 Fit       0.003553
 7302 Fit       0.003119
 7303 Fit       0.002481
 7304 Fit       0.003036
 7305 Fit       0.003396
 7306 Fit       0.003678
 7307 Fit       0.003816
 7308 Fit       0.003769
 7309 Fit       0.003520
 7310 Fit       0.003089
 7311 Fit       0.002567
 7312 Fit       0.002153
 7313 Fit       0.003767
 7314 Fit       0.003909
 7315 Fit       0.003914
 7316 Fit       0.003758
 7317 Fit       0.003458
 7318 Fit       0.003084
 7319 Fit       0.002748
 7320 Fit       0.004058
 7321 Fit       0.004089
 7322 Fit       0.004010
 7323 Fit       0.003824
 7324 Fit       0.003575
 7325 Fit       0.003317
 7326 Fit       0.003037
 7327 Fit      -0.011513
 7328 Fit      -0.011791
 7329 Fit      -0.008219
 7330 Fit      -0.005591
 7331 Fit      -0.016292
 7332 Fit      -0.011558
 7333 Fit      -0.008134
 7334 Fit      -0.005605
 7335 Fit      -0.003683
 7336 Fit      -0.002133
 7337 Fit      -0.014183
 7338 Fit      -0.010010
 7339 Fit      -0.006930
 7340 Fit      -0.004631
 7341 Fit      -0.002892
 7342 Fit      -0.001534
 7343 Fit      -0.000386
 7344 Fit      -0.016651
 7345 Fit      -0.011973
 7346 Fit      -0.008433
 7347 Fit      -0.005741
 7348 Fit      -0.003693
 7349 Fit      -0.002130
 7350 Fit      -0.000924
 7351 Fit       0.000047
 7352 Fit       0.000910
 7353 Fit      -0.013222
 7354 Fit      -0.009515
 7355 Fit      -0.006601
 7356 Fit      -0.004324
 7357 Fit      -0.002558
 7358 Fit      -0.001197
 7359 Fit      -0.000147
 7360 Fit       0.000683
 7361 Fit       0.001387
 7362 Fit      -0.013367
 7363 Fit      -0.009802
 7364 Fit      -0.006868
 7365 Fit      -0.004499
 7366 Fit      -0.002619
 7367 Fit      -0.001151
 7368 Fit      -0.000021
 7369 Fit       0.000847
 7370 Fit       0.001530
 7371 Fit       0.002116
 7372 Fit      -0.012572
 7373 Fit      -0.009536
 7374 Fit      -0.006815
 7375 Fit      -0.004494
 7376 Fit      -0.002582
 7377 Fit      -0.001052
 7378 Fit       0.000141
 7379 Fit       0.001055
 7380 Fit       0.001754
 7381 Fit       0.002314
 7382 Fit       0.002822
 7383 Fit      -0.008602
 7384 Fit      -0.006455
 7385 Fit      -0.004410
 7386 Fit      -0.002599
 7387 Fit      -0.001076
 7388 Fit       0.000154
 7389 Fit       0.001115
 7390 Fit       0.001852
 7391 Fit       0.002425
 7392 Fit       0.002908
 7393 Fit      -0.010597
 7394 Fit      -0.005473
 7395 Fit      -0.003887
 7396 Fit      -0.002282
 7397 Fit      -0.000830
 7398 Fit       0.000391
 7399 Fit       0.001364
 7400 Fit       0.002113
 7401 Fit       0.002697
 7402 Fit       0.003194
 7403 Fit      -0.006756
 7404 Fit      -0.003001
 7405 Fit      -0.001859
 7406 Fit      -0.000615
 7407 Fit       0.000536
 7408 Fit       0.001502
 7409 Fit       0.002270
 7410 Fit       0.002881
 7411 Fit      -0.003740
 7412 Fit      -0.001020
 7413 Fit      -0.000193
 7414 Fit       0.000801
 7415 Fit       0.001734
 7416 Fit       0.002518
 7417 Fit       0.003181
 7418 Fit       0.000623
 7419 Fit       0.001245
 7420 Fit       0.002123
 7421 Fit       0.000639
 7422 Fit       0.000462
 7423 Fit       0.001212
 7424 Fit       0.001037
 7425 Fit       0.000337
 7426 Fit      -0.000019
 7427 Fit      -0.000031
 7428 Fit      -0.000214
 7429 Fit       0.000870
 7430 Fit       0.001727
 7431 Fit       0.001791
 7432 Fit       0.001081
 7433 Fit       0.000181
 7434 Fit      -0.000430
 7435 Fit      -0.000853
 7436 Fit      -0.001413
 7437 Fit      -0.000109
 7438 Fit       0.001264
 7439 Fit       0.002219
 7440 Fit       0.002434
 7441 Fit       0.001847
 7442 Fit       0.000681
 7443 Fit      -0.002195
 7444 Fit      -0.001562
 7445 Fit       0.000277
 7446 Fit       0.001874
 7447 Fit       0.002862
 7448 Fit       0.003048
 7449 Fit       0.002392
 7450 Fit       0.000987
 7451 Fit      -0.001041
 7452 Fit       0.001220
 7453 Fit       0.002891
 7454 Fit       0.003738
 7455 Fit       0.003682
 7456 Fit       0.002728
 7457 Fit       0.000909
 7458 Fit       0.002752
 7459 Fit       0.004253
 7460 Fit       0.004808
 7461 Fit       0.004432
 7462 Fit       0.003160
 7463 Fit       0.005441
 7464 Fit       0.006226
 7465 Fit       0.005950
 7466 Fit       0.004711
 7467 Fit       0.002542
 7468 Fit       0.006827
 7469 Fit       0.004599
 7470 Fit       0.027545
 7471 Fit       0.029030
 7472 Fit       0.029917
 7473 Fit       0.024723
 7474 Fit       0.025606
 7475 Fit       0.026240
 7476 Fit       0.026439
 7477 Fit       0.026032
 7478 Fit       0.023344
 7479 Fit       0.023631
 7480 Fit       0.023936
 7481 Fit       0.024083
 7482 Fit       0.023915
 7483 Fit       0.023301
 7484 Fit       0.022137
 7485 Fit       0.020353
 7486 Fit       0.017900
 7487 Fit       0.013297
 7488 Fit       0.023014
 7489 Fit       0.022734
 7490 Fit       0.022637
 7491 Fit       0.022498
 7492 Fit       0.022148
 7493 Fit       0.021450
 7494 Fit       0.020293
 7495 Fit       0.018590
 7496 Fit       0.016276
 7497 Fit       0.012743
 7498 Fit       0.009697
 7499 Fit       0.023208
 7500 Fit       0.022278
 7501 Fit       0.021780
 7502 Fit       0.021397
 7503 Fit       0.020915
 7504 Fit       0.020175
 7505 Fit       0.019056
 7506 Fit       0.017471
 7507 Fit       0.015366
 7508 Fit       0.012636
 7509 Fit       0.010210
 7510 Fit       0.007883
 7511 Fit       0.022063
 7512 Fit       0.021189
 7513 Fit       0.020575
 7514 Fit       0.019969
 7515 Fit       0.019197
 7516 Fit       0.018132
 7517 Fit       0.016693
 7518 Fit       0.014847
 7519 Fit       0.012703
 7520 Fit       0.010665
 7521 Fit       0.008863
 7522 Fit       0.007687
 7523 Fit       0.021130
 7524 Fit       0.020174
 7525 Fit       0.019417
 7526 Fit       0.018623
 7527 Fit       0.017621
 7528 Fit       0.016306
 7529 Fit       0.014646
 7530 Fit       0.012783
 7531 Fit       0.011047
 7532 Fit       0.009570
 7533 Fit       0.008566
 7534 Fit       0.019823
 7535 Fit       0.018941
 7536 Fit       0.018116
 7537 Fit       0.017171
 7538 Fit       0.015977
 7539 Fit       0.014492
 7540 Fit       0.012792
 7541 Fit       0.011197
 7542 Fit       0.009836
 7543 Fit       0.018345
 7544 Fit       0.017656
 7545 Fit       0.016812
 7546 Fit       0.015738
 7547 Fit       0.014376
 7548 Fit       0.012700
 7549 Fit       0.011067
 7550 Fit       0.016217
 7551 Fit       0.015504
 7552 Fit       0.014282
 7553 Fit       0.012512
 7554 Fit       0.013998
 7555 Fit       0.003481
 7556 Fit       0.004783
 7557 Fit       0.004455
 7558 Fit       0.005989
 7559 Fit       0.006981
 7560 Fit       0.007514
 7561 Fit       0.005202
 7562 Fit       0.006915
 7563 Fit       0.008107
 7564 Fit       0.008904
 7565 Fit       0.009378
 7566 Fit       0.006048
 7567 Fit       0.007878
 7568 Fit       0.009192
 7569 Fit       0.010139
 7570 Fit       0.010817
 7571 Fit       0.011285
 7572 Fit       0.006851
 7573 Fit       0.008693
 7574 Fit       0.010069
 7575 Fit       0.011120
 7576 Fit       0.011952
 7577 Fit       0.012645
 7578 Fit       0.013266
 7579 Fit       0.006605
 7580 Fit       0.008650
 7581 Fit       0.010221
 7582 Fit       0.011459
 7583 Fit       0.012477
 7584 Fit       0.013371
 7585 Fit       0.014240
 7586 Fit       0.015183
 7587 Fit       0.006422
 7588 Fit       0.008619
 7589 Fit       0.010346
 7590 Fit       0.011738
 7591 Fit       0.012910
 7592 Fit       0.013973
 7593 Fit       0.015050
 7594 Fit       0.016293
 7595 Fit       0.004897
 7596 Fit       0.007429
 7597 Fit       0.009479
 7598 Fit       0.011149
 7599 Fit       0.012550
 7600 Fit       0.013797
 7601 Fit       0.015023
 7602 Fit       0.016398
 7603 Fit       0.018176
 7604 Fit       0.006043
 7605 Fit       0.008278
 7606 Fit       0.010167
 7607 Fit       0.011771
 7608 Fit       0.013179
 7609 Fit       0.014509
 7610 Fit       0.015919
 7611 Fit       0.017635
 7612 Fit       0.004613
 7613 Fit       0.006920
 7614 Fit       0.009013
 7615 Fit       0.010847
 7616 Fit       0.012462
 7617 Fit       0.013958
 7618 Fit       0.015493
 7619 Fit       0.017303
 7620 Fit       0.003602
 7621 Fit       0.005539
 7622 Fit       0.007597
 7623 Fit       0.009563
 7624 Fit       0.011352
 7625 Fit       0.012993
 7626 Fit       0.014602
 7627 Fit       0.016375
 7628 Fit       0.005209
 7629 Fit       0.007051
 7630 Fit       0.009014
 7631 Fit       0.010904
 7632 Fit       0.012669
 7633 Fit       0.014387
 7634 Fit       0.016196
 7635 Fit       0.007197
 7636 Fit       0.009249
 7637 Fit       0.011287
 7638 Fit       0.013128
 7639 Fit       0.013975
 7640 Fit       0.014383
 7641 Fit       0.015043
 7642 Fit       0.015231
 7643 Fit       0.015133
 7644 Fit       0.015356
 7645 Fit       0.015819
 7646 Fit       0.016503
 7647 Fit       0.017429
 7648 Fit       0.018655
 7649 Fit       0.016928
 7650 Fit       0.016258
 7651 Fit       0.016052
 7652 Fit       0.016148
 7653 Fit       0.016461
 7654 Fit       0.016955
 7655 Fit       0.017632
 7656 Fit       0.018525
 7657 Fit       0.019695
 7658 Fit       0.021241
 7659 Fit       0.017930
 7660 Fit       0.017106
 7661 Fit       0.016754
 7662 Fit       0.016708
 7663 Fit       0.016874
 7664 Fit       0.017200
 7665 Fit       0.017667
 7666 Fit       0.018283
 7667 Fit       0.019079
 7668 Fit       0.020115
 7669 Fit       0.021483
 7670 Fit       0.023347
 7671 Fit       0.018154
 7672 Fit       0.017450
 7673 Fit       0.017135
 7674 Fit       0.017087
 7675 Fit       0.017225
 7676 Fit       0.017501
 7677 Fit       0.017893
 7678 Fit       0.018402
 7679 Fit       0.019049
 7680 Fit       0.019881
 7681 Fit       0.020970
 7682 Fit       0.022438
 7683 Fit       0.018041
 7684 Fit       0.017516
 7685 Fit       0.017243
 7686 Fit       0.017187
 7687 Fit       0.017294
 7688 Fit       0.017521
 7689 Fit       0.017842
 7690 Fit       0.018248
 7691 Fit       0.018749
 7692 Fit       0.019372
 7693 Fit       0.020165
 7694 Fit       0.021195
 7695 Fit       0.022562
 7696 Fit       0.016822
 7697 Fit       0.016889
 7698 Fit       0.016896
 7699 Fit       0.016961
 7700 Fit       0.017112
 7701 Fit       0.017338
 7702 Fit       0.017625
 7703 Fit       0.017963
 7704 Fit       0.018352
 7705 Fit       0.018805
 7706 Fit       0.019343
 7707 Fit       0.019992
 7708 Fit       0.020769
 7709 Fit       0.015462
 7710 Fit       0.016004
 7711 Fit       0.016372
 7712 Fit       0.016691
 7713 Fit       0.017009
 7714 Fit       0.017337
 7715 Fit       0.017673
 7716 Fit       0.018019
 7717 Fit       0.018380
 7718 Fit       0.018758
 7719 Fit       0.019133
 7720 Fit       0.019424
 7721 Fit       0.013311
 7722 Fit       0.014540
 7723 Fit       0.015362
 7724 Fit       0.015953
 7725 Fit       0.016423
 7726 Fit       0.016822
 7727 Fit       0.017167
 7728 Fit       0.017459
 7729 Fit       0.017691
 7730 Fit       0.017829
 7731 Fit       0.017784
 7732 Fit       0.017361
 7733 Fit       0.014735
 7734 Fit       0.011722
 7735 Fit       0.013322
 7736 Fit       0.014491
 7737 Fit       0.015321
 7738 Fit       0.015921
 7739 Fit       0.016352
 7740 Fit       0.016627
 7741 Fit       0.016722
 7742 Fit       0.016559
 7743 Fit       0.015974
 7744 Fit       0.013777
 7745 Fit       0.011281
 7746 Fit       0.012950
 7747 Fit       0.014242
 7748 Fit       0.015092
 7749 Fit       0.015545
 7750 Fit       0.015577
 7751 Fit       0.015053
 7752 Fit       0.013195
 7753 Fit       0.011515
 7754 Fit       0.011365
 7755 Fit       0.012813
 7756 Fit       0.014081
 7757 Fit       0.014297
 7758 Fit       0.012891
 -----------------------------------------------------------------
 Leave Link  602 at Wed Nov 29 18:29:10 2017, MaxMem=   33554432 cpu:       3.1

 Test job not archived.
 1\1\GINC-NODE33\FOpt\RHF\6-31G(d)\C11H9F3N2O1\DAVE\29-Nov-2017\0\\#HF/
 6-31G* SCF=tight Test Pop=MK iop(6/33=2) iop(6/42=6) opt\\remark line 
 goes here\\0,1\F,5.4192482234,10.3075175047,-9.1108827057\F,4.02186802
 38,10.4467572369,-7.505307373\C,4.2025271776,10.7174469712,-8.78800894
 34\C,3.1501668764,10.0787486662,-9.6517580556\C,3.4444327795,9.7558027
 249,-10.9678183913\C,2.4576841548,9.2120865978,-11.7693294702\C,1.1903
 345646,8.9866219712,-11.2562806684\C,0.8790650882,9.3150161073,-9.9394
 61398\C,1.8792958066,9.8685015495,-9.1446797255\C,-0.4806129397,9.0834
 307621,-9.3990488316\C,-0.9130207012,8.1820145195,-8.3733561632\C,-0.0
 751215237,7.2300064616,-7.5785150035\N,-2.1802720926,8.2405839777,-8.1
 782732092\O,-2.649671072,9.1995739297,-9.0675445887\C,-1.6470608413,9.
 6765421054,-9.7635584488\N,-1.9367752831,10.6710401358,-10.6430206855\
 F,4.1998611116,12.0376766088,-8.9060024919\H,-1.2543056384,10.85972285
 19,-11.342118342\H,-2.8822032685,10.7173587682,-10.9535084437\H,0.4776
 760689,6.570463886,-8.2383385458\H,0.6441865517,7.7665391823,-6.969830
 3912\H,-0.7060459953,6.636245552,-6.9313668037\H,1.657486212,10.137364
 8751,-8.1292503477\H,0.4369559792,8.5351067158,-11.8773536009\H,4.4314
 31471,9.9190682836,-11.3574777081\H,2.6788692665,8.9497620552,-12.7879
 096634\\Version=EM64L-G09RevC.01\State=1-A\HF=-903.8427457\RMSD=9.874e
 -09\RMSF=2.313e-06\Dipole=0.1508712,-0.1115151,-1.7247118\Quadrupole=-
 8.940888,-0.2178383,9.1587263,-6.8850576,6.1662897,-1.4184819\PG=C01 [
 X(C11H9F3N2O1)]\\@


 SIGN SEEN IN A RESTAURANT-
 WE RESERVE THE RIGHT TO SERVE REFUSE TO ANYONE.
 Job cpu time:  0 days  2 hours 11 minutes 57.3 seconds.
 File lengths (MBytes):  RWF=     59 Int=      0 D2E=      0 Chk=      7 Scr=      1
 Normal termination of Gaussian 09 at Wed Nov 29 18:29:10 2017.
