 Entering Gaussian System, Link 0=g03
 Initial command:
 /share/apps//g03/l1.exe /state/partition1/mmpbsa.lZ7997/Gau-8004.inp -scrdir=/state/partition1/mmpbsa.lZ7997/
 Entering Link 1 = /share/apps//g03/l1.exe PID=      8005.
  
 Copyright (c) 1988,1990,1992,1993,1995,1998,2003,2004, Gaussian, Inc.
                  All Rights Reserved.
  
 This is the Gaussian(R) 03 program.  It is based on the
 the Gaussian(R) 98 system (copyright 1998, Gaussian, Inc.),
 the Gaussian(R) 94 system (copyright 1995, Gaussian, Inc.),
 the Gaussian 92(TM) system (copyright 1992, Gaussian, Inc.),
 the Gaussian 90(TM) system (copyright 1990, Gaussian, Inc.),
 the Gaussian 88(TM) system (copyright 1988, Gaussian, Inc.),
 the Gaussian 86(TM) system (copyright 1986, Carnegie Mellon
 University), and the Gaussian 82(TM) system (copyright 1983,
 Carnegie Mellon University). Gaussian is a federally registered
 trademark of Gaussian, Inc.
  
 This software contains proprietary and confidential information,
 including trade secrets, belonging to Gaussian, Inc.
  
 This software is provided under written license and may be
 used, copied, transmitted, or stored only in accord with that
 written license.
  
 The following legend is applicable only to US Government
 contracts under FAR:
  
                    RESTRICTED RIGHTS LEGEND
  
 Use, reproduction and disclosure by the US Government is
 subject to restrictions as set forth in subparagraphs (a)
 and (c) of the Commercial Computer Software - Restricted
 Rights clause in FAR 52.227-19.
  
 Gaussian, Inc.
 340 Quinnipiac St., Bldg. 40, Wallingford CT 06492
  
  
 ---------------------------------------------------------------
 Warning -- This program may not be used in any manner that
 competes with the business of Gaussian, Inc. or will provide
 assistance to any competitor of Gaussian, Inc.  The licensee
 of this program is prohibited from giving any competitor of
 Gaussian, Inc. access to this program.  By using this program,
 the user acknowledges that Gaussian, Inc. is engaged in the
 business of creating and licensing software in the field of
 computational chemistry and represents and warrants to the
 licensee that it is not a competitor of Gaussian, Inc. and that
 it will not use this program in any manner prohibited above.
 ---------------------------------------------------------------
  

 Cite this work as:
 Gaussian 03, Revision D.02,
 M. J. Frisch, G. W. Trucks, H. B. Schlegel, G. E. Scuseria, 
 M. A. Robb, J. R. Cheeseman, J. A. Montgomery, Jr., T. Vreven, 
 K. N. Kudin, J. C. Burant, J. M. Millam, S. S. Iyengar, J. Tomasi, 
 V. Barone, B. Mennucci, M. Cossi, G. Scalmani, N. Rega, 
 G. A. Petersson, H. Nakatsuji, M. Hada, M. Ehara, K. Toyota, 
 R. Fukuda, J. Hasegawa, M. Ishida, T. Nakajima, Y. Honda, O. Kitao, 
 H. Nakai, M. Klene, X. Li, J. E. Knox, H. P. Hratchian, J. B. Cross, 
 V. Bakken, C. Adamo, J. Jaramillo, R. Gomperts, R. E. Stratmann, 
 O. Yazyev, A. J. Austin, R. Cammi, C. Pomelli, J. W. Ochterski, 
 P. Y. Ayala, K. Morokuma, G. A. Voth, P. Salvador, J. J. Dannenberg, 
 V. G. Zakrzewski, S. Dapprich, A. D. Daniels, M. C. Strain, 
 O. Farkas, D. K. Malick, A. D. Rabuck, K. Raghavachari, 
 J. B. Foresman, J. V. Ortiz, Q. Cui, A. G. Baboul, S. Clifford, 
 J. Cioslowski, B. B. Stefanov, G. Liu, A. Liashenko, P. Piskorz, 
 I. Komaromi, R. L. Martin, D. J. Fox, T. Keith, M. A. Al-Laham, 
 C. Y. Peng, A. Nanayakkara, M. Challacombe, P. M. W. Gill, 
 B. Johnson, W. Chen, M. W. Wong, C. Gonzalez, and J. A. Pople, 
 Gaussian, Inc., Wallingford CT, 2004.
 
 ******************************************
 Gaussian 03:  AM64L-G03RevD.02  1-Mar-2006
                23-Sep-2015 
 ******************************************
 %chk=molecule
 ------------------------------------------------------------
 #HF/6-31G* SCF=tight Test Pop=MK iop(6/33=2) iop(6/42=6) opt
 ------------------------------------------------------------
 1/18=20,38=1/1,3;
 2/9=110,17=6,18=5,40=1/2;
 3/5=1,6=6,7=1,11=9,16=1,25=1,30=1/1,2,3;
 4//1;
 5/5=2,32=2,38=5/2;
 6/7=2,8=2,9=2,10=2,15=8,20=1,28=1,33=2,42=6/1,2;
 7//1,2,3,16;
 1/18=20/3(3);
 2/9=110/2;
 6/7=2,8=2,9=2,10=2,15=8,19=2,20=1,28=1,33=2,42=6/1,2;
 99//99;
 2/9=110/2;
 3/5=1,6=6,7=1,11=9,16=1,25=1,30=1/1,2,3;
 4/5=5,16=3/1;
 5/5=2,32=2,38=5/2;
 7//1,2,3,16;
 1/18=20/3(-5);
 2/9=110/2;
 6/7=2,8=2,9=2,10=2,15=8,19=2,20=1,28=1,33=2,42=6/1,2;
 99/9=1/99;
 ---------------------
 remark line goes here
 ---------------------
 Symbolic Z-matrix:
 Charge =  1 Multiplicity = 1
 C                     15.629    7.158     8.88 
 C                     14.911    6.241     9.881 
 C                     13.966    5.212     9.215 
 C                     14.734    4.266     8.25 
 C                     14.076    2.887     8.117 
 N                     14.766    2.08      7.113 
 C                     14.163    0.99      6.467 
 C                     14.904    0.315     5.474 
 C                     14.353   -0.788     4.793 
 C                     13.052   -1.228     5.099 
 C                     12.305   -0.563     6.088 
 C                     12.855    0.541     6.769 
 C                     13.999    2.295     9.521 
 C                     14.395    0.97      9.815 
 C                     14.371    0.47      11.136 
 C                     13.962    1.339     12.17 
 C                     13.571    2.662     11.893 
 C                     13.558    3.142     10.563 
 N                     13.171    4.487     10.243 
 C                     12.01     5.052     10.689 
 C                     10.976    4.211     11.443 
 O                     11.718    6.234     10.478 
 C                     14.779   -0.92      11.429 
 C                     15.86    -1.521     10.745 
 C                     16.249   -2.846     11.022 
 C                     15.558   -3.602     11.992 
 C                     15.972   -5.036     12.294 
 C                     15.159   -6.028     10.163 
 C                     14.155   -7.015     9.537 
 C                     14.347   -8.432     10.092 
 C                     14.274   -8.407     11.624 
 C                     15.278   -7.397     12.212 
 C                     14.481   -3.011     12.685 
 C                     14.098   -1.686     12.403 
 H                     13.265    5.758     8.579 
 H                     13.053    3.052     7.773 
 H                     16.242    7.894     9.401 
 H                     16.288    6.597     8.217 
 H                     14.915    7.703     8.261 
 H                     14.347    6.87      10.57 
 H                     15.65     5.72      10.492 
 H                     14.825    4.743     7.273 
 H                     15.753    4.126     8.615 
 H                     15.705    2.358     6.847 
 H                     15.906    0.636     5.224 
 H                     14.932   -1.296     4.034 
 H                     12.629   -2.076     4.577 
 H                     11.306   -0.9       6.329 
 H                     12.255    1.02      7.529 
 H                     14.726    0.32      9.019 
 H                     13.96     0.998     13.196 
 H                     13.294    3.304     12.717 
 H                     9.986     4.657     11.344 
 H                     11.211    4.17      12.506 
 H                     10.913    3.197     11.049 
 H                     16.409   -0.96      10.002 
 H                     17.082   -3.277     10.484 
 H                     17.006   -5.204     11.988 
 H                     15.953   -5.167     13.377 
 H                     14.952   -5.03      9.775 
 H                     16.173   -6.279     9.85 
 H                     13.136   -6.677     9.73 
 H                     14.272   -7.021     8.452 
 H                     13.588   -9.103     9.688 
 H                     15.312   -8.828     9.773 
 H                     13.262   -8.151     11.943 
 H                     14.475   -9.402     12.023 
 H                     15.165   -7.371     13.296 
 H                     16.299   -7.729     12.013 
 H                     13.941   -3.57      13.438 
 H                     13.263   -1.258     12.941 
 N                     15.081   -6.034     11.65 
 H                     14.144   -5.755     11.896 
 

 GradGradGradGradGradGradGradGradGradGradGradGradGradGradGradGradGradGrad
 Berny optimization.
 Initialization pass.
                           ----------------------------
                           !    Initial Parameters    !
                           ! (Angstroms and Degrees)  !
 --------------------------                            --------------------------
 ! Name  Definition              Value          Derivative Info.                !
 --------------------------------------------------------------------------------
 ! R1    R(1,2)                  1.5357         estimate D2E/DX2                !
 ! R2    R(1,37)                 1.0904         estimate D2E/DX2                !
 ! R3    R(1,38)                 1.0902         estimate D2E/DX2                !
 ! R4    R(1,39)                 1.0909         estimate D2E/DX2                !
 ! R5    R(2,3)                  1.5477         estimate D2E/DX2                !
 ! R6    R(2,40)                 1.0902         estimate D2E/DX2                !
 ! R7    R(2,41)                 1.0913         estimate D2E/DX2                !
 ! R8    R(3,4)                  1.5543         estimate D2E/DX2                !
 ! R9    R(3,19)                 1.4881         estimate D2E/DX2                !
 ! R10   R(3,35)                 1.0927         estimate D2E/DX2                !
 ! R11   R(4,5)                  1.5337         estimate D2E/DX2                !
 ! R12   R(4,42)                 1.091          estimate D2E/DX2                !
 ! R13   R(4,43)                 1.0914         estimate D2E/DX2                !
 ! R14   R(5,6)                  1.4613         estimate D2E/DX2                !
 ! R15   R(5,13)                 1.5257         estimate D2E/DX2                !
 ! R16   R(5,36)                 1.0918         estimate D2E/DX2                !
 ! R17   R(6,7)                  1.4032         estimate D2E/DX2                !
 ! R18   R(6,44)                 1.0148         estimate D2E/DX2                !
 ! R19   R(7,8)                  1.4109         estimate D2E/DX2                !
 ! R20   R(7,12)                 1.4155         estimate D2E/DX2                !
 ! R21   R(8,9)                  1.4085         estimate D2E/DX2                !
 ! R22   R(8,45)                 1.0815         estimate D2E/DX2                !
 ! R23   R(9,10)                 1.4071         estimate D2E/DX2                !
 ! R24   R(9,46)                 1.0814         estimate D2E/DX2                !
 ! R25   R(10,11)                1.4065         estimate D2E/DX2                !
 ! R26   R(10,47)                1.0819         estimate D2E/DX2                !
 ! R27   R(11,12)                1.4089         estimate D2E/DX2                !
 ! R28   R(11,48)                1.0815         estimate D2E/DX2                !
 ! R29   R(12,49)                1.0803         estimate D2E/DX2                !
 ! R30   R(13,14)                1.4138         estimate D2E/DX2                !
 ! R31   R(13,18)                1.4134         estimate D2E/DX2                !
 ! R32   R(14,15)                1.4127         estimate D2E/DX2                !
 ! R33   R(14,50)                1.0797         estimate D2E/DX2                !
 ! R34   R(15,16)                1.4112         estimate D2E/DX2                !
 ! R35   R(15,23)                1.478          estimate D2E/DX2                !
 ! R36   R(16,17)                1.4071         estimate D2E/DX2                !
 ! R37   R(16,51)                1.0812         estimate D2E/DX2                !
 ! R38   R(17,18)                1.414          estimate D2E/DX2                !
 ! R39   R(17,52)                1.0807         estimate D2E/DX2                !
 ! R40   R(18,19)                1.4357         estimate D2E/DX2                !
 ! R41   R(19,20)                1.366          estimate D2E/DX2                !
 ! R42   R(20,21)                1.5313         estimate D2E/DX2                !
 ! R43   R(20,22)                1.2357         estimate D2E/DX2                !
 ! R44   R(21,53)                1.0903         estimate D2E/DX2                !
 ! R45   R(21,54)                1.0894         estimate D2E/DX2                !
 ! R46   R(21,55)                1.0897         estimate D2E/DX2                !
 ! R47   R(23,24)                1.4134         estimate D2E/DX2                !
 ! R48   R(23,34)                1.4139         estimate D2E/DX2                !
 ! R49   R(24,25)                1.4084         estimate D2E/DX2                !
 ! R50   R(24,56)                1.0808         estimate D2E/DX2                !
 ! R51   R(25,26)                1.4106         estimate D2E/DX2                !
 ! R52   R(25,57)                1.0812         estimate D2E/DX2                !
 ! R53   R(26,27)                1.5228         estimate D2E/DX2                !
 ! R54   R(26,33)                1.4105         estimate D2E/DX2                !
 ! R55   R(27,58)                1.0913         estimate D2E/DX2                !
 ! R56   R(27,59)                1.0911         estimate D2E/DX2                !
 ! R57   R(27,72)                1.4848         estimate D2E/DX2                !
 ! R58   R(28,29)                1.5408         estimate D2E/DX2                !
 ! R59   R(28,60)                1.0906         estimate D2E/DX2                !
 ! R60   R(28,61)                1.0905         estimate D2E/DX2                !
 ! R61   R(28,72)                1.4891         estimate D2E/DX2                !
 ! R62   R(29,30)                1.5339         estimate D2E/DX2                !
 ! R63   R(29,62)                1.0908         estimate D2E/DX2                !
 ! R64   R(29,63)                1.0913         estimate D2E/DX2                !
 ! R65   R(30,31)                1.5339         estimate D2E/DX2                !
 ! R66   R(30,64)                1.0907         estimate D2E/DX2                !
 ! R67   R(30,65)                1.0908         estimate D2E/DX2                !
 ! R68   R(31,32)                1.5407         estimate D2E/DX2                !
 ! R69   R(31,66)                1.0915         estimate D2E/DX2                !
 ! R70   R(31,67)                1.0907         estimate D2E/DX2                !
 ! R71   R(32,68)                1.0902         estimate D2E/DX2                !
 ! R72   R(32,69)                1.0919         estimate D2E/DX2                !
 ! R73   R(32,72)                1.4874         estimate D2E/DX2                !
 ! R74   R(33,34)                1.4078         estimate D2E/DX2                !
 ! R75   R(33,70)                1.0822         estimate D2E/DX2                !
 ! R76   R(34,71)                1.0816         estimate D2E/DX2                !
 ! R77   R(72,73)                1.0081         estimate D2E/DX2                !
 ! A1    A(2,1,37)             110.7598         estimate D2E/DX2                !
 ! A2    A(2,1,38)             111.8229         estimate D2E/DX2                !
 ! A3    A(2,1,39)             111.2337         estimate D2E/DX2                !
 ! A4    A(37,1,38)            107.343          estimate D2E/DX2                !
 ! A5    A(37,1,39)            107.5701         estimate D2E/DX2                !
 ! A6    A(38,1,39)            107.9173         estimate D2E/DX2                !
 ! A7    A(1,2,3)              113.7018         estimate D2E/DX2                !
 ! A8    A(1,2,40)             108.0179         estimate D2E/DX2                !
 ! A9    A(1,2,41)             109.4762         estimate D2E/DX2                !
 ! A10   A(3,2,40)             109.8576         estimate D2E/DX2                !
 ! A11   A(3,2,41)             109.6936         estimate D2E/DX2                !
 ! A12   A(40,2,41)            105.7801         estimate D2E/DX2                !
 ! A13   A(2,3,4)              111.7224         estimate D2E/DX2                !
 ! A14   A(2,3,19)             110.6613         estimate D2E/DX2                !
 ! A15   A(2,3,35)             108.0562         estimate D2E/DX2                !
 ! A16   A(4,3,19)             113.3494         estimate D2E/DX2                !
 ! A17   A(4,3,35)             105.0543         estimate D2E/DX2                !
 ! A18   A(19,3,35)            107.6256         estimate D2E/DX2                !
 ! A19   A(3,4,5)              112.8973         estimate D2E/DX2                !
 ! A20   A(3,4,42)             109.3343         estimate D2E/DX2                !
 ! A21   A(3,4,43)             109.3757         estimate D2E/DX2                !
 ! A22   A(5,4,42)             110.5625         estimate D2E/DX2                !
 ! A23   A(5,4,43)             108.314          estimate D2E/DX2                !
 ! A24   A(42,4,43)            106.122          estimate D2E/DX2                !
 ! A25   A(4,5,6)              110.7042         estimate D2E/DX2                !
 ! A26   A(4,5,13)             106.9021         estimate D2E/DX2                !
 ! A27   A(4,5,36)             107.0629         estimate D2E/DX2                !
 ! A28   A(6,5,13)             116.2201         estimate D2E/DX2                !
 ! A29   A(6,5,36)             108.0234         estimate D2E/DX2                !
 ! A30   A(13,5,36)            107.5355         estimate D2E/DX2                !
 ! A31   A(5,6,7)              122.8454         estimate D2E/DX2                !
 ! A32   A(5,6,44)             117.7579         estimate D2E/DX2                !
 ! A33   A(7,6,44)             119.3252         estimate D2E/DX2                !
 ! A34   A(6,7,8)              118.0301         estimate D2E/DX2                !
 ! A35   A(6,7,12)             123.0427         estimate D2E/DX2                !
 ! A36   A(8,7,12)             118.9271         estimate D2E/DX2                !
 ! A37   A(7,8,9)              120.6274         estimate D2E/DX2                !
 ! A38   A(7,8,45)             120.4834         estimate D2E/DX2                !
 ! A39   A(9,8,45)             118.8891         estimate D2E/DX2                !
 ! A40   A(8,9,10)             120.0946         estimate D2E/DX2                !
 ! A41   A(8,9,46)             119.8521         estimate D2E/DX2                !
 ! A42   A(10,9,46)            120.0533         estimate D2E/DX2                !
 ! A43   A(9,10,11)            119.744          estimate D2E/DX2                !
 ! A44   A(9,10,47)            120.1111         estimate D2E/DX2                !
 ! A45   A(11,10,47)           120.1447         estimate D2E/DX2                !
 ! A46   A(10,11,12)           120.1993         estimate D2E/DX2                !
 ! A47   A(10,11,48)           119.996          estimate D2E/DX2                !
 ! A48   A(12,11,48)           119.8047         estimate D2E/DX2                !
 ! A49   A(7,12,11)            120.4075         estimate D2E/DX2                !
 ! A50   A(7,12,49)            121.5114         estimate D2E/DX2                !
 ! A51   A(11,12,49)           118.0773         estimate D2E/DX2                !
 ! A52   A(5,13,14)            122.7439         estimate D2E/DX2                !
 ! A53   A(5,13,18)            117.4946         estimate D2E/DX2                !
 ! A54   A(14,13,18)           119.7167         estimate D2E/DX2                !
 ! A55   A(13,14,15)           121.4264         estimate D2E/DX2                !
 ! A56   A(13,14,50)           119.7869         estimate D2E/DX2                !
 ! A57   A(15,14,50)           118.7866         estimate D2E/DX2                !
 ! A58   A(14,15,16)           118.1723         estimate D2E/DX2                !
 ! A59   A(14,15,23)           120.9015         estimate D2E/DX2                !
 ! A60   A(16,15,23)           120.922          estimate D2E/DX2                !
 ! A61   A(15,16,17)           121.015          estimate D2E/DX2                !
 ! A62   A(15,16,51)           120.107          estimate D2E/DX2                !
 ! A63   A(17,16,51)           118.871          estimate D2E/DX2                !
 ! A64   A(16,17,18)           120.4564         estimate D2E/DX2                !
 ! A65   A(16,17,52)           118.6649         estimate D2E/DX2                !
 ! A66   A(18,17,52)           120.8743         estimate D2E/DX2                !
 ! A67   A(13,18,17)           119.1524         estimate D2E/DX2                !
 ! A68   A(13,18,19)           118.7639         estimate D2E/DX2                !
 ! A69   A(17,18,19)           122.0148         estimate D2E/DX2                !
 ! A70   A(3,19,18)            117.8004         estimate D2E/DX2                !
 ! A71   A(3,19,20)            118.5606         estimate D2E/DX2                !
 ! A72   A(18,19,20)           122.943          estimate D2E/DX2                !
 ! A73   A(19,20,21)           120.4968         estimate D2E/DX2                !
 ! A74   A(19,20,22)           122.7329         estimate D2E/DX2                !
 ! A75   A(21,20,22)           116.7344         estimate D2E/DX2                !
 ! A76   A(20,21,53)           110.105          estimate D2E/DX2                !
 ! A77   A(20,21,54)           110.8211         estimate D2E/DX2                !
 ! A78   A(20,21,55)           111.8428         estimate D2E/DX2                !
 ! A79   A(53,21,54)           107.4485         estimate D2E/DX2                !
 ! A80   A(53,21,55)           107.1765         estimate D2E/DX2                !
 ! A81   A(54,21,55)           109.284          estimate D2E/DX2                !
 ! A82   A(15,23,24)           121.0047         estimate D2E/DX2                !
 ! A83   A(15,23,34)           120.8713         estimate D2E/DX2                !
 ! A84   A(24,23,34)           118.124          estimate D2E/DX2                !
 ! A85   A(23,24,25)           121.071          estimate D2E/DX2                !
 ! A86   A(23,24,56)           120.0312         estimate D2E/DX2                !
 ! A87   A(25,24,56)           118.8955         estimate D2E/DX2                !
 ! A88   A(24,25,26)           120.2732         estimate D2E/DX2                !
 ! A89   A(24,25,57)           119.3356         estimate D2E/DX2                !
 ! A90   A(26,25,57)           120.3912         estimate D2E/DX2                !
 ! A91   A(25,26,27)           120.5218         estimate D2E/DX2                !
 ! A92   A(25,26,33)           119.1648         estimate D2E/DX2                !
 ! A93   A(27,26,33)           120.3127         estimate D2E/DX2                !
 ! A94   A(26,27,58)           110.3001         estimate D2E/DX2                !
 ! A95   A(26,27,59)           107.7691         estimate D2E/DX2                !
 ! A96   A(26,27,72)           112.5685         estimate D2E/DX2                !
 ! A97   A(58,27,59)           106.0416         estimate D2E/DX2                !
 ! A98   A(58,27,72)           110.0885         estimate D2E/DX2                !
 ! A99   A(59,27,72)           109.8387         estimate D2E/DX2                !
 ! A100  A(29,28,60)           108.5401         estimate D2E/DX2                !
 ! A101  A(29,28,61)           109.9895         estimate D2E/DX2                !
 ! A102  A(29,28,72)           111.6544         estimate D2E/DX2                !
 ! A103  A(60,28,61)           106.5592         estimate D2E/DX2                !
 ! A104  A(60,28,72)           110.4276         estimate D2E/DX2                !
 ! A105  A(61,28,72)           109.5367         estimate D2E/DX2                !
 ! A106  A(28,29,30)           111.2967         estimate D2E/DX2                !
 ! A107  A(28,29,62)           109.7758         estimate D2E/DX2                !
 ! A108  A(28,29,63)           109.7305         estimate D2E/DX2                !
 ! A109  A(30,29,62)           109.8261         estimate D2E/DX2                !
 ! A110  A(30,29,63)           109.9523         estimate D2E/DX2                !
 ! A111  A(62,29,63)           106.1271         estimate D2E/DX2                !
 ! A112  A(29,30,31)           109.8986         estimate D2E/DX2                !
 ! A113  A(29,30,64)           110.3167         estimate D2E/DX2                !
 ! A114  A(29,30,65)           109.8953         estimate D2E/DX2                !
 ! A115  A(31,30,64)           110.2952         estimate D2E/DX2                !
 ! A116  A(31,30,65)           109.883          estimate D2E/DX2                !
 ! A117  A(64,30,65)           106.4979         estimate D2E/DX2                !
 ! A118  A(30,31,32)           111.1509         estimate D2E/DX2                !
 ! A119  A(30,31,66)           109.8662         estimate D2E/DX2                !
 ! A120  A(30,31,67)           109.9816         estimate D2E/DX2                !
 ! A121  A(32,31,66)           109.8087         estimate D2E/DX2                !
 ! A122  A(32,31,67)           109.7744         estimate D2E/DX2                !
 ! A123  A(66,31,67)           106.135          estimate D2E/DX2                !
 ! A124  A(31,32,68)           109.1209         estimate D2E/DX2                !
 ! A125  A(31,32,69)           109.9043         estimate D2E/DX2                !
 ! A126  A(31,32,72)           111.7277         estimate D2E/DX2                !
 ! A127  A(68,32,69)           106.5821         estimate D2E/DX2                !
 ! A128  A(68,32,72)           109.8835         estimate D2E/DX2                !
 ! A129  A(69,32,72)           109.4876         estimate D2E/DX2                !
 ! A130  A(26,33,34)           120.2441         estimate D2E/DX2                !
 ! A131  A(26,33,70)           120.4279         estimate D2E/DX2                !
 ! A132  A(34,33,70)           119.328          estimate D2E/DX2                !
 ! A133  A(23,34,33)           121.1214         estimate D2E/DX2                !
 ! A134  A(23,34,71)           120.0064         estimate D2E/DX2                !
 ! A135  A(33,34,71)           118.8708         estimate D2E/DX2                !
 ! A136  A(27,72,28)           113.515          estimate D2E/DX2                !
 ! A137  A(27,72,32)           111.874          estimate D2E/DX2                !
 ! A138  A(27,72,73)           105.4198         estimate D2E/DX2                !
 ! A139  A(28,72,32)           111.9667         estimate D2E/DX2                !
 ! A140  A(28,72,73)           106.9328         estimate D2E/DX2                !
 ! A141  A(32,72,73)           106.5291         estimate D2E/DX2                !
 ! D1    D(37,1,2,3)           177.186          estimate D2E/DX2                !
 ! D2    D(37,1,2,40)           54.9845         estimate D2E/DX2                !
 ! D3    D(37,1,2,41)          -59.7464         estimate D2E/DX2                !
 ! D4    D(38,1,2,3)           -63.1319         estimate D2E/DX2                !
 ! D5    D(38,1,2,40)          174.6665         estimate D2E/DX2                !
 ! D6    D(38,1,2,41)           59.9356         estimate D2E/DX2                !
 ! D7    D(39,1,2,3)            57.6065         estimate D2E/DX2                !
 ! D8    D(39,1,2,40)          -64.5951         estimate D2E/DX2                !
 ! D9    D(39,1,2,41)         -179.326          estimate D2E/DX2                !
 ! D10   D(1,2,3,4)             60.3316         estimate D2E/DX2                !
 ! D11   D(1,2,3,19)          -172.3535         estimate D2E/DX2                !
 ! D12   D(1,2,3,35)           -54.7528         estimate D2E/DX2                !
 ! D13   D(40,2,3,4)          -178.4893         estimate D2E/DX2                !
 ! D14   D(40,2,3,19)          -51.1743         estimate D2E/DX2                !
 ! D15   D(40,2,3,35)           66.4264         estimate D2E/DX2                !
 ! D16   D(41,2,3,4)           -62.6168         estimate D2E/DX2                !
 ! D17   D(41,2,3,19)           64.6981         estimate D2E/DX2                !
 ! D18   D(41,2,3,35)         -177.7012         estimate D2E/DX2                !
 ! D19   D(2,3,4,5)            151.6358         estimate D2E/DX2                !
 ! D20   D(2,3,4,42)           -84.8426         estimate D2E/DX2                !
 ! D21   D(2,3,4,43)            30.9643         estimate D2E/DX2                !
 ! D22   D(19,3,4,5)            25.7847         estimate D2E/DX2                !
 ! D23   D(19,3,4,42)          149.3063         estimate D2E/DX2                !
 ! D24   D(19,3,4,43)          -94.8868         estimate D2E/DX2                !
 ! D25   D(35,3,4,5)           -91.4499         estimate D2E/DX2                !
 ! D26   D(35,3,4,42)           32.0716         estimate D2E/DX2                !
 ! D27   D(35,3,4,43)          147.8786         estimate D2E/DX2                !
 ! D28   D(2,3,19,18)         -103.8259         estimate D2E/DX2                !
 ! D29   D(2,3,19,20)           85.447          estimate D2E/DX2                !
 ! D30   D(4,3,19,18)           22.5887         estimate D2E/DX2                !
 ! D31   D(4,3,19,20)         -148.1384         estimate D2E/DX2                !
 ! D32   D(35,3,19,18)         138.3098         estimate D2E/DX2                !
 ! D33   D(35,3,19,20)         -32.4173         estimate D2E/DX2                !
 ! D34   D(3,4,5,6)            174.9924         estimate D2E/DX2                !
 ! D35   D(3,4,5,13)           -57.5268         estimate D2E/DX2                !
 ! D36   D(3,4,5,36)            57.4761         estimate D2E/DX2                !
 ! D37   D(42,4,5,6)            52.1526         estimate D2E/DX2                !
 ! D38   D(42,4,5,13)          179.6334         estimate D2E/DX2                !
 ! D39   D(42,4,5,36)          -65.3637         estimate D2E/DX2                !
 ! D40   D(43,4,5,6)           -63.7324         estimate D2E/DX2                !
 ! D41   D(43,4,5,13)           63.7484         estimate D2E/DX2                !
 ! D42   D(43,4,5,36)          178.7513         estimate D2E/DX2                !
 ! D43   D(4,5,6,7)           -158.4522         estimate D2E/DX2                !
 ! D44   D(4,5,6,44)            18.4486         estimate D2E/DX2                !
 ! D45   D(13,5,6,7)            79.3664         estimate D2E/DX2                !
 ! D46   D(13,5,6,44)         -103.7328         estimate D2E/DX2                !
 ! D47   D(36,5,6,7)           -41.5262         estimate D2E/DX2                !
 ! D48   D(36,5,6,44)          135.3747         estimate D2E/DX2                !
 ! D49   D(4,5,13,14)         -132.8383         estimate D2E/DX2                !
 ! D50   D(4,5,13,18)           44.7165         estimate D2E/DX2                !
 ! D51   D(6,5,13,14)           -8.676          estimate D2E/DX2                !
 ! D52   D(6,5,13,18)          168.8788         estimate D2E/DX2                !
 ! D53   D(36,5,13,14)         112.4767         estimate D2E/DX2                !
 ! D54   D(36,5,13,18)         -69.9685         estimate D2E/DX2                !
 ! D55   D(5,6,7,8)            177.4381         estimate D2E/DX2                !
 ! D56   D(5,6,7,12)            -2.7066         estimate D2E/DX2                !
 ! D57   D(44,6,7,8)             0.5838         estimate D2E/DX2                !
 ! D58   D(44,6,7,12)         -179.5609         estimate D2E/DX2                !
 ! D59   D(6,7,8,9)            179.862          estimate D2E/DX2                !
 ! D60   D(6,7,8,45)            -0.068          estimate D2E/DX2                !
 ! D61   D(12,7,8,9)             0.0007         estimate D2E/DX2                !
 ! D62   D(12,7,8,45)         -179.9293         estimate D2E/DX2                !
 ! D63   D(6,7,12,11)         -179.8082         estimate D2E/DX2                !
 ! D64   D(6,7,12,49)           -0.5332         estimate D2E/DX2                !
 ! D65   D(8,7,12,11)            0.0459         estimate D2E/DX2                !
 ! D66   D(8,7,12,49)          179.3208         estimate D2E/DX2                !
 ! D67   D(7,8,9,10)             0.0065         estimate D2E/DX2                !
 ! D68   D(7,8,9,46)           179.9883         estimate D2E/DX2                !
 ! D69   D(45,8,9,10)          179.9376         estimate D2E/DX2                !
 ! D70   D(45,8,9,46)           -0.0806         estimate D2E/DX2                !
 ! D71   D(8,9,10,11)           -0.0598         estimate D2E/DX2                !
 ! D72   D(8,9,10,47)         -179.9195         estimate D2E/DX2                !
 ! D73   D(46,9,10,11)         179.9584         estimate D2E/DX2                !
 ! D74   D(46,9,10,47)           0.0987         estimate D2E/DX2                !
 ! D75   D(9,10,11,12)           0.1064         estimate D2E/DX2                !
 ! D76   D(9,10,11,48)        -179.7762         estimate D2E/DX2                !
 ! D77   D(47,10,11,12)        179.966          estimate D2E/DX2                !
 ! D78   D(47,10,11,48)          0.0835         estimate D2E/DX2                !
 ! D79   D(10,11,12,7)          -0.0999         estimate D2E/DX2                !
 ! D80   D(10,11,12,49)       -179.3993         estimate D2E/DX2                !
 ! D81   D(48,11,12,7)         179.7829         estimate D2E/DX2                !
 ! D82   D(48,11,12,49)          0.4835         estimate D2E/DX2                !
 ! D83   D(5,13,14,15)         176.9942         estimate D2E/DX2                !
 ! D84   D(5,13,14,50)          -2.8922         estimate D2E/DX2                !
 ! D85   D(18,13,14,15)         -0.5083         estimate D2E/DX2                !
 ! D86   D(18,13,14,50)        179.6054         estimate D2E/DX2                !
 ! D87   D(5,13,18,17)        -175.1731         estimate D2E/DX2                !
 ! D88   D(5,13,18,19)           1.8686         estimate D2E/DX2                !
 ! D89   D(14,13,18,17)          2.4588         estimate D2E/DX2                !
 ! D90   D(14,13,18,19)        179.5005         estimate D2E/DX2                !
 ! D91   D(13,14,15,16)         -1.1506         estimate D2E/DX2                !
 ! D92   D(13,14,15,23)        179.5904         estimate D2E/DX2                !
 ! D93   D(50,14,15,16)        178.7369         estimate D2E/DX2                !
 ! D94   D(50,14,15,23)         -0.5222         estimate D2E/DX2                !
 ! D95   D(14,15,16,17)          0.8502         estimate D2E/DX2                !
 ! D96   D(14,15,16,51)       -178.1834         estimate D2E/DX2                !
 ! D97   D(23,15,16,17)       -179.8909         estimate D2E/DX2                !
 ! D98   D(23,15,16,51)          1.0755         estimate D2E/DX2                !
 ! D99   D(14,15,23,24)         37.9962         estimate D2E/DX2                !
 ! D100  D(14,15,23,34)       -142.028          estimate D2E/DX2                !
 ! D101  D(16,15,23,24)       -141.2424         estimate D2E/DX2                !
 ! D102  D(16,15,23,34)         38.7334         estimate D2E/DX2                !
 ! D103  D(15,16,17,18)          1.1114         estimate D2E/DX2                !
 ! D104  D(15,16,17,52)       -178.133          estimate D2E/DX2                !
 ! D105  D(51,16,17,18)       -179.8433         estimate D2E/DX2                !
 ! D106  D(51,16,17,52)          0.9123         estimate D2E/DX2                !
 ! D107  D(16,17,18,13)         -2.7694         estimate D2E/DX2                !
 ! D108  D(16,17,18,19)       -179.7108         estimate D2E/DX2                !
 ! D109  D(52,17,18,13)        176.4582         estimate D2E/DX2                !
 ! D110  D(52,17,18,19)         -0.4833         estimate D2E/DX2                !
 ! D111  D(13,18,19,3)         -38.3105         estimate D2E/DX2                !
 ! D112  D(13,18,19,20)        131.9805         estimate D2E/DX2                !
 ! D113  D(17,18,19,3)         138.6425         estimate D2E/DX2                !
 ! D114  D(17,18,19,20)        -51.0665         estimate D2E/DX2                !
 ! D115  D(3,19,20,21)         163.55           estimate D2E/DX2                !
 ! D116  D(3,19,20,22)         -14.199          estimate D2E/DX2                !
 ! D117  D(18,19,20,21)         -6.671          estimate D2E/DX2                !
 ! D118  D(18,19,20,22)        175.58           estimate D2E/DX2                !
 ! D119  D(19,20,21,53)       -155.5847         estimate D2E/DX2                !
 ! D120  D(19,20,21,54)         85.6765         estimate D2E/DX2                !
 ! D121  D(19,20,21,55)        -36.5376         estimate D2E/DX2                !
 ! D122  D(22,20,21,53)         22.2952         estimate D2E/DX2                !
 ! D123  D(22,20,21,54)        -96.4436         estimate D2E/DX2                !
 ! D124  D(22,20,21,55)        141.3423         estimate D2E/DX2                !
 ! D125  D(15,23,24,25)       -179.9257         estimate D2E/DX2                !
 ! D126  D(15,23,24,56)          0.638          estimate D2E/DX2                !
 ! D127  D(34,23,24,25)          0.0978         estimate D2E/DX2                !
 ! D128  D(34,23,24,56)       -179.3385         estimate D2E/DX2                !
 ! D129  D(15,23,34,33)        179.9129         estimate D2E/DX2                !
 ! D130  D(15,23,34,71)          0.3471         estimate D2E/DX2                !
 ! D131  D(24,23,34,33)         -0.1106         estimate D2E/DX2                !
 ! D132  D(24,23,34,71)       -179.6764         estimate D2E/DX2                !
 ! D133  D(23,24,25,26)          0.172          estimate D2E/DX2                !
 ! D134  D(23,24,25,57)       -179.8191         estimate D2E/DX2                !
 ! D135  D(56,24,25,26)        179.6147         estimate D2E/DX2                !
 ! D136  D(56,24,25,57)         -0.3765         estimate D2E/DX2                !
 ! D137  D(24,25,26,27)        179.8764         estimate D2E/DX2                !
 ! D138  D(24,25,26,33)         -0.4267         estimate D2E/DX2                !
 ! D139  D(57,25,26,27)         -0.1326         estimate D2E/DX2                !
 ! D140  D(57,25,26,33)        179.5643         estimate D2E/DX2                !
 ! D141  D(25,26,27,58)         21.7117         estimate D2E/DX2                !
 ! D142  D(25,26,27,59)        137.0488         estimate D2E/DX2                !
 ! D143  D(25,26,27,72)       -101.6779         estimate D2E/DX2                !
 ! D144  D(33,26,27,58)       -157.9816         estimate D2E/DX2                !
 ! D145  D(33,26,27,59)        -42.6446         estimate D2E/DX2                !
 ! D146  D(33,26,27,72)         78.6287         estimate D2E/DX2                !
 ! D147  D(25,26,33,34)          0.4141         estimate D2E/DX2                !
 ! D148  D(25,26,33,70)       -179.5816         estimate D2E/DX2                !
 ! D149  D(27,26,33,34)       -179.8884         estimate D2E/DX2                !
 ! D150  D(27,26,33,70)          0.1159         estimate D2E/DX2                !
 ! D151  D(26,27,72,28)         66.2719         estimate D2E/DX2                !
 ! D152  D(26,27,72,32)       -165.8283         estimate D2E/DX2                !
 ! D153  D(26,27,72,73)        -50.4398         estimate D2E/DX2                !
 ! D154  D(58,27,72,28)        -57.2356         estimate D2E/DX2                !
 ! D155  D(58,27,72,32)         70.6642         estimate D2E/DX2                !
 ! D156  D(58,27,72,73)       -173.9473         estimate D2E/DX2                !
 ! D157  D(59,27,72,28)       -173.6427         estimate D2E/DX2                !
 ! D158  D(59,27,72,32)        -45.7429         estimate D2E/DX2                !
 ! D159  D(59,27,72,73)         69.6456         estimate D2E/DX2                !
 ! D160  D(60,28,29,30)       -177.2903         estimate D2E/DX2                !
 ! D161  D(60,28,29,62)        -55.4876         estimate D2E/DX2                !
 ! D162  D(60,28,29,63)         60.7784         estimate D2E/DX2                !
 ! D163  D(61,28,29,30)         66.4862         estimate D2E/DX2                !
 ! D164  D(61,28,29,62)       -171.7111         estimate D2E/DX2                !
 ! D165  D(61,28,29,63)        -55.4451         estimate D2E/DX2                !
 ! D166  D(72,28,29,30)        -55.3366         estimate D2E/DX2                !
 ! D167  D(72,28,29,62)         66.4661         estimate D2E/DX2                !
 ! D168  D(72,28,29,63)       -177.2679         estimate D2E/DX2                !
 ! D169  D(29,28,72,27)       -176.4068         estimate D2E/DX2                !
 ! D170  D(29,28,72,32)         55.7414         estimate D2E/DX2                !
 ! D171  D(29,28,72,73)        -60.5844         estimate D2E/DX2                !
 ! D172  D(60,28,72,27)        -55.5469         estimate D2E/DX2                !
 ! D173  D(60,28,72,32)        176.6013         estimate D2E/DX2                !
 ! D174  D(60,28,72,73)         60.2755         estimate D2E/DX2                !
 ! D175  D(61,28,72,27)         61.5096         estimate D2E/DX2                !
 ! D176  D(61,28,72,32)        -66.3422         estimate D2E/DX2                !
 ! D177  D(61,28,72,73)        177.332          estimate D2E/DX2                !
 ! D178  D(28,29,30,31)         54.4944         estimate D2E/DX2                !
 ! D179  D(28,29,30,64)        176.3222         estimate D2E/DX2                !
 ! D180  D(28,29,30,65)        -66.5465         estimate D2E/DX2                !
 ! D181  D(62,29,30,31)        -67.2792         estimate D2E/DX2                !
 ! D182  D(62,29,30,64)         54.5487         estimate D2E/DX2                !
 ! D183  D(62,29,30,65)        171.68           estimate D2E/DX2                !
 ! D184  D(63,29,30,31)        176.2969         estimate D2E/DX2                !
 ! D185  D(63,29,30,64)        -61.8753         estimate D2E/DX2                !
 ! D186  D(63,29,30,65)         55.2561         estimate D2E/DX2                !
 ! D187  D(29,30,31,32)        -54.541          estimate D2E/DX2                !
 ! D188  D(29,30,31,66)         67.2044         estimate D2E/DX2                !
 ! D189  D(29,30,31,67)       -176.3214         estimate D2E/DX2                !
 ! D190  D(64,30,31,32)       -176.3816         estimate D2E/DX2                !
 ! D191  D(64,30,31,66)        -54.6362         estimate D2E/DX2                !
 ! D192  D(64,30,31,67)         61.8379         estimate D2E/DX2                !
 ! D193  D(65,30,31,32)         66.5073         estimate D2E/DX2                !
 ! D194  D(65,30,31,66)       -171.7474         estimate D2E/DX2                !
 ! D195  D(65,30,31,67)        -55.2732         estimate D2E/DX2                !
 ! D196  D(30,31,32,68)        177.2947         estimate D2E/DX2                !
 ! D197  D(30,31,32,69)        -66.1686         estimate D2E/DX2                !
 ! D198  D(30,31,32,72)         55.5821         estimate D2E/DX2                !
 ! D199  D(66,31,32,68)         55.5158         estimate D2E/DX2                !
 ! D200  D(66,31,32,69)        172.0525         estimate D2E/DX2                !
 ! D201  D(66,31,32,72)        -66.1968         estimate D2E/DX2                !
 ! D202  D(67,31,32,68)        -60.8042         estimate D2E/DX2                !
 ! D203  D(67,31,32,69)         55.7325         estimate D2E/DX2                !
 ! D204  D(67,31,32,72)        177.4832         estimate D2E/DX2                !
 ! D205  D(31,32,72,27)        175.3639         estimate D2E/DX2                !
 ! D206  D(31,32,72,28)        -55.9149         estimate D2E/DX2                !
 ! D207  D(31,32,72,73)         60.6549         estimate D2E/DX2                !
 ! D208  D(68,32,72,27)         54.0923         estimate D2E/DX2                !
 ! D209  D(68,32,72,28)       -177.1865         estimate D2E/DX2                !
 ! D210  D(68,32,72,73)        -60.6167         estimate D2E/DX2                !
 ! D211  D(69,32,72,27)        -62.6455         estimate D2E/DX2                !
 ! D212  D(69,32,72,28)         66.0757         estimate D2E/DX2                !
 ! D213  D(69,32,72,73)       -177.3545         estimate D2E/DX2                !
 ! D214  D(26,33,34,23)         -0.1465         estimate D2E/DX2                !
 ! D215  D(26,33,34,71)        179.4241         estimate D2E/DX2                !
 ! D216  D(70,33,34,23)        179.8492         estimate D2E/DX2                !
 ! D217  D(70,33,34,71)         -0.5802         estimate D2E/DX2                !
 --------------------------------------------------------------------------------
 Trust Radius=3.00D-01 FncErr=1.00D-07 GrdErr=1.00D-07
 Number of steps in this run= 438 maximum allowed number of steps= 438.
 GradGradGradGradGradGradGradGradGradGradGradGradGradGradGradGradGradGrad

 Stoichiometry    C31H38N3O(1+)
 Framework group  C1[X(C31H38N3O)]
 Deg. of freedom   213
 Full point group                 C1
 Largest Abelian subgroup         C1      NOp   1
 Largest concise Abelian subgroup C1      NOp   1
                         Standard orientation:                         
 ---------------------------------------------------------------------
 Center     Atomic     Atomic              Coordinates (Angstroms)
 Number     Number      Type              X           Y           Z
 ---------------------------------------------------------------------
    1          6             0        7.174175   -0.230629   -2.241463
    2          6             0        6.202193   -1.076107   -1.405501
    3          6             0        5.397400   -0.255846   -0.368726
    4          6             0        4.528497    0.838171   -1.049974
    5          6             0        3.267413    1.183594   -0.248325
    6          7             0        2.549621    2.295348   -0.868116
    7          6             0        1.643794    3.103345   -0.164097
    8          6             0        1.048312    4.183809   -0.848753
    9          6             0        0.129212    5.028105   -0.195765
   10          6             0       -0.204282    4.799745    1.152000
   11          6             0        0.382650    3.724792    1.843622
   12          6             0        1.302843    2.880349    1.191519
   13          6             0        2.482348   -0.113158   -0.075935
   14          6             0        1.092367   -0.203546   -0.318132
   15          6             0        0.404305   -1.432596   -0.210309
   16          6             0        1.147159   -2.584949    0.124126
   17          6             0        2.532050   -2.511083    0.361950
   18          6             0        3.205949   -1.269890    0.292882
   19          7             0        4.618501   -1.156907    0.523372
   20          6             0        5.235386   -1.677776    1.625285
   21          6             0        4.410578   -2.289080    2.761486
   22          8             0        6.460782   -1.648136    1.781601
   23          6             0       -1.050706   -1.512137   -0.457350
   24          6             0       -1.658073   -0.750143   -1.481111
   25          6             0       -3.044705   -0.823693   -1.716729
   26          6             0       -3.856873   -1.663254   -0.925882
   27          6             0       -5.357130   -1.745005   -1.173877
   28          6             0       -5.918899    0.516720   -0.304847
   29          6             0       -6.681910    1.291351    0.786858
   30          6             0       -8.178973    0.958148    0.763238
   31          6             0       -8.377797   -0.559306    0.867064
   32          6             0       -7.586451   -1.299894   -0.227999
   33          6             0       -3.261134   -2.432637    0.095197
   34          6             0       -1.874414   -2.354177    0.324741
   35          1             0        6.107889    0.293056    0.254110
   36          1             0        3.595419    1.503784    0.742624
   37          1             0        7.750072   -0.861108   -2.919508
   38          1             0        6.649932    0.506739   -2.849762
   39          1             0        7.882561    0.301694   -1.605222
   40          1             0        6.778715   -1.850053   -0.898464
   41          1             0        5.515804   -1.604319   -2.069387
   42          1             0        5.134520    1.730413   -1.214228
   43          1             0        4.222319    0.493432   -2.039214
   44          1             0        2.758276    2.510822   -1.837547
   45          1             0        1.289766    4.376573   -1.885134
   46          1             0       -0.319555    5.852680   -0.732487
   47          1             0       -0.911202    5.447304    1.653447
   48          1             0        0.126506    3.543349    2.878571
   49          1             0        1.725314    2.059324    1.752301
   50          1             0        0.537342    0.680583   -0.593703
   51          1             0        0.657400   -3.546847    0.186160
   52          1             0        3.068971   -3.421948    0.585354
   53          1             0        4.973889   -2.254084    3.694370
   54          1             0        4.183493   -3.334593    2.556033
   55          1             0        3.481166   -1.744586    2.926163
   56          1             0       -1.055923   -0.104401   -2.104493
   57          1             0       -3.479532   -0.230623   -2.509375
   58          1             0       -5.591083   -1.422422   -2.189860
   59          1             0       -5.647344   -2.795200   -1.116634
   60          1             0       -4.856952    0.748921   -0.216822
   61          1             0       -6.231090    0.858996   -1.292040
   62          1             0       -6.265575    1.054413    1.766848
   63          1             0       -6.536875    2.363917    0.647154
   64          1             0       -8.692443    1.463851    1.581866
   65          1             0       -8.627221    1.328747   -0.159547
   66          1             0       -8.061824   -0.908285    1.851856
   67          1             0       -9.437791   -0.802804    0.784917
   68          1             0       -7.712137   -2.374546   -0.094478
   69          1             0       -7.996209   -1.057953   -1.210765
   70          1             0       -3.863833   -3.088614    0.709638
   71          1             0       -1.442311   -2.946779    1.119702
   72          7             0       -6.140814   -0.951504   -0.193664
   73          1             0       -5.799573   -1.232247    0.712462
 ---------------------------------------------------------------------
 Rotational constants (GHZ):      0.1812515      0.0495608      0.0429415
 Standard basis: 6-31G(d) (6D, 7F)
 There are   601 symmetry adapted basis functions of A   symmetry.
 Integral buffers will be    131072 words long.
 Raffenetti 1 integral format.
 Two-electron integral symmetry is turned on.
   601 basis functions,  1132 primitive gaussians,   601 cartesian basis functions
   126 alpha electrons      126 beta electrons
       nuclear repulsion energy      3524.8491871655 Hartrees.
 NAtoms=   73 NActive=   73 NUniq=   73 SFac= 7.50D-01 NAtFMM=   80 NAOKFM=F Big=T
 One-electron integrals computed using PRISM.
 NBasis=   601 RedAO= T  NBF=   601
 NBsUse=   601 1.00D-06 NBFU=   601
 Harris functional with IExCor=  205 diagonalized for initial guess.
 ExpMin= 1.61D-01 ExpMax= 5.48D+03 ExpMxC= 8.25D+02 IAcc=1 IRadAn=         1 AccDes= 1.00D-06
 HarFok:  IExCor= 205 AccDes= 1.00D-06 IRadAn=         1 IDoV=1
 ScaDFX=  1.000000  1.000000  1.000000  1.000000
 Initial guess orbital symmetries:
       Occupied  (A) (A) (A) (A) (A) (A) (A) (A) (A) (A) (A) (A)
                 (A) (A) (A) (A) (A) (A) (A) (A) (A) (A) (A) (A)
                 (A) (A) (A) (A) (A) (A) (A) (A) (A) (A) (A) (A)
                 (A) (A) (A) (A) (A) (A) (A) (A) (A) (A) (A) (A)
                 (A) (A) (A) (A) (A) (A) (A) (A) (A) (A) (A) (A)
                 (A) (A) (A) (A) (A) (A) (A) (A) (A) (A) (A) (A)
                 (A) (A) (A) (A) (A) (A) (A) (A) (A) (A) (A) (A)
                 (A) (A) (A) (A) (A) (A) (A) (A) (A) (A) (A) (A)
                 (A) (A) (A) (A) (A) (A) (A) (A) (A) (A) (A) (A)
                 (A) (A) (A) (A) (A) (A) (A) (A) (A) (A) (A) (A)
                 (A) (A) (A) (A) (A) (A)
       Virtual   (A) (A) (A) (A) (A) (A) (A) (A) (A) (A) (A) (A)
                 (A) (A) (A) (A) (A) (A) (A) (A) (A) (A) (A) (A)
                 (A) (A) (A) (A) (A) (A) (A) (A) (A) (A) (A) (A)
                 (A) (A) (A) (A) (A) (A) (A) (A) (A) (A) (A) (A)
                 (A) (A) (A) (A) (A) (A) (A) (A) (A) (A) (A) (A)
                 (A) (A) (A) (A) (A) (A) (A) (A) (A) (A) (A) (A)
                 (A) (A) (A) (A) (A) (A) (A) (A) (A) (A) (A) (A)
                 (A) (A) (A) (A) (A) (A) (A) (A) (A) (A) (A) (A)
                 (A) (A) (A) (A) (A) (A) (A) (A) (A) (A) (A) (A)
                 (A) (A) (A) (A) (A) (A) (A) (A) (A) (A) (A) (A)
                 (A) (A) (A) (A) (A) (A) (A) (A) (A) (A) (A) (A)
                 (A) (A) (A) (A) (A) (A) (A) (A) (A) (A) (A) (A)
                 (A) (A) (A) (A) (A) (A) (A) (A) (A) (A) (A) (A)
                 (A) (A) (A) (A) (A) (A) (A) (A) (A) (A) (A) (A)
                 (A) (A) (A) (A) (A) (A) (A) (A) (A) (A) (A) (A)
                 (A) (A) (A) (A) (A) (A) (A) (A) (A) (A) (A) (A)
                 (A) (A) (A) (A) (A) (A) (A) (A) (A) (A) (A) (A)
                 (A) (A) (A) (A) (A) (A) (A) (A) (A) (A) (A) (A)
                 (A) (A) (A) (A) (A) (A) (A) (A) (A) (A) (A) (A)
                 (A) (A) (A) (A) (A) (A) (A) (A) (A) (A) (A) (A)
                 (A) (A) (A) (A) (A) (A) (A) (A) (A) (A) (A) (A)
                 (A) (A) (A) (A) (A) (A) (A) (A) (A) (A) (A) (A)
                 (A) (A) (A) (A) (A) (A) (A) (A) (A) (A) (A) (A)
                 (A) (A) (A) (A) (A) (A) (A) (A) (A) (A) (A) (A)
                 (A) (A) (A) (A) (A) (A) (A) (A) (A) (A) (A) (A)
                 (A) (A) (A) (A) (A) (A) (A) (A) (A) (A) (A) (A)
                 (A) (A) (A) (A) (A) (A) (A) (A) (A) (A) (A) (A)
                 (A) (A) (A) (A) (A) (A) (A) (A) (A) (A) (A) (A)
                 (A) (A) (A) (A) (A) (A) (A) (A) (A) (A) (A) (A)
                 (A) (A) (A) (A) (A) (A) (A) (A) (A) (A) (A) (A)
                 (A) (A) (A) (A) (A) (A) (A) (A) (A) (A) (A) (A)
                 (A) (A) (A) (A) (A) (A) (A) (A) (A) (A) (A) (A)
                 (A) (A) (A) (A) (A) (A) (A) (A) (A) (A) (A) (A)
                 (A) (A) (A) (A) (A) (A) (A) (A) (A) (A) (A) (A)
                 (A) (A) (A) (A) (A) (A) (A) (A) (A) (A) (A) (A)
                 (A) (A) (A) (A) (A) (A) (A) (A) (A) (A) (A) (A)
                 (A) (A) (A) (A) (A) (A) (A) (A) (A) (A) (A) (A)
                 (A) (A) (A) (A) (A) (A) (A) (A) (A) (A) (A) (A)
                 (A) (A) (A) (A) (A) (A) (A) (A) (A) (A) (A) (A)
                 (A) (A) (A) (A) (A) (A) (A)
 The electronic state of the initial guess is 1-A.
 Requested convergence on RMS density matrix=1.00D-08 within 128 cycles.
 Requested convergence on MAX density matrix=1.00D-06.
 Requested convergence on             energy=1.00D-06.
 No special actions if energy rises.
 Integral accuracy reduced to 1.0D-05 until final iterations.
 Initial convergence to 1.0D-05 achieved.  Increase integral accuracy.
 SCF Done:  E(RHF) =  -1434.07553937     A.U. after   16 cycles
             Convg  =    0.6568D-08             -V/T =  2.0023
             S**2   =   0.0000

 **********************************************************************

            Population analysis using the SCF density.

 **********************************************************************

 Orbital symmetries:
 BldTbl:  Degeneracy threshold= 1.00D-02
       Occupied  (A) (A) (A) (A) (A) (A) (A) (A) (A) (A) (A) (A)
                 (A) (A) (A) (A) (A) (A) (A) (A) (A) (A) (A) (A)
                 (A) (A) (A) (A) (A) (A) (A) (A) (A) (A) (A) (A)
                 (A) (A) (A) (A) (A) (A) (A) (A) (A) (A) (A) (A)
                 (A) (A) (A) (A) (A) (A) (A) (A) (A) (A) (A) (A)
                 (A) (A) (A) (A) (A) (A) (A) (A) (A) (A) (A) (A)
                 (A) (A) (A) (A) (A) (A) (A) (A) (A) (A) (A) (A)
                 (A) (A) (A) (A) (A) (A) (A) (A) (A) (A) (A) (A)
                 (A) (A) (A) (A) (A) (A) (A) (A) (A) (A) (A) (A)
                 (A) (A) (A) (A) (A) (A) (A) (A) (A) (A) (A) (A)
                 (A) (A) (A) (A) (A) (A)
       Virtual   (A) (A) (A) (A) (A) (A) (A) (A) (A) (A) (A) (A)
                 (A) (A) (A) (A) (A) (A) (A) (A) (A) (A) (A) (A)
                 (A) (A) (A) (A) (A) (A) (A) (A) (A) (A) (A) (A)
                 (A) (A) (A) (A) (A) (A) (A) (A) (A) (A) (A) (A)
                 (A) (A) (A) (A) (A) (A) (A) (A) (A) (A) (A) (A)
                 (A) (A) (A) (A) (A) (A) (A) (A) (A) (A) (A) (A)
                 (A) (A) (A) (A) (A) (A) (A) (A) (A) (A) (A) (A)
                 (A) (A) (A) (A) (A) (A) (A) (A) (A) (A) (A) (A)
                 (A) (A) (A) (A) (A) (A) (A) (A) (A) (A) (A) (A)
                 (A) (A) (A) (A) (A) (A) (A) (A) (A) (A) (A) (A)
                 (A) (A) (A) (A) (A) (A) (A) (A) (A) (A) (A) (A)
                 (A) (A) (A) (A) (A) (A) (A) (A) (A) (A) (A) (A)
                 (A) (A) (A) (A) (A) (A) (A) (A) (A) (A) (A) (A)
                 (A) (A) (A) (A) (A) (A) (A) (A) (A) (A) (A) (A)
                 (A) (A) (A) (A) (A) (A) (A) (A) (A) (A) (A) (A)
                 (A) (A) (A) (A) (A) (A) (A) (A) (A) (A) (A) (A)
                 (A) (A) (A) (A) (A) (A) (A) (A) (A) (A) (A) (A)
                 (A) (A) (A) (A) (A) (A) (A) (A) (A) (A) (A) (A)
                 (A) (A) (A) (A) (A) (A) (A) (A) (A) (A) (A) (A)
                 (A) (A) (A) (A) (A) (A) (A) (A) (A) (A) (A) (A)
                 (A) (A) (A) (A) (A) (A) (A) (A) (A) (A) (A) (A)
                 (A) (A) (A) (A) (A) (A) (A) (A) (A) (A) (A) (A)
                 (A) (A) (A) (A) (A) (A) (A) (A) (A) (A) (A) (A)
                 (A) (A) (A) (A) (A) (A) (A) (A) (A) (A) (A) (A)
                 (A) (A) (A) (A) (A) (A) (A) (A) (A) (A) (A) (A)
                 (A) (A) (A) (A) (A) (A) (A) (A) (A) (A) (A) (A)
                 (A) (A) (A) (A) (A) (A) (A) (A) (A) (A) (A) (A)
                 (A) (A) (A) (A) (A) (A) (A) (A) (A) (A) (A) (A)
                 (A) (A) (A) (A) (A) (A) (A) (A) (A) (A) (A) (A)
                 (A) (A) (A) (A) (A) (A) (A) (A) (A) (A) (A) (A)
                 (A) (A) (A) (A) (A) (A) (A) (A) (A) (A) (A) (A)
                 (A) (A) (A) (A) (A) (A) (A) (A) (A) (A) (A) (A)
                 (A) (A) (A) (A) (A) (A) (A) (A) (A) (A) (A) (A)
                 (A) (A) (A) (A) (A) (A) (A) (A) (A) (A) (A) (A)
                 (A) (A) (A) (A) (A) (A) (A) (A) (A) (A) (A) (A)
                 (A) (A) (A) (A) (A) (A) (A) (A) (A) (A) (A) (A)
                 (A) (A) (A) (A) (A) (A) (A) (A) (A) (A) (A) (A)
                 (A) (A) (A) (A) (A) (A) (A) (A) (A) (A) (A) (A)
                 (A) (A) (A) (A) (A) (A) (A) (A) (A) (A) (A) (A)
                 (A) (A) (A) (A) (A) (A) (A)
 The electronic state is 1-A.
 Alpha  occ. eigenvalues --  -20.57663 -15.85269 -15.66554 -15.63966 -11.43978
 Alpha  occ. eigenvalues --  -11.43975 -11.43485 -11.41116 -11.37775 -11.37605
 Alpha  occ. eigenvalues --  -11.37578 -11.36638 -11.36435 -11.36396 -11.36272
 Alpha  occ. eigenvalues --  -11.36208 -11.35218 -11.35079 -11.35042 -11.34865
 Alpha  occ. eigenvalues --  -11.33495 -11.33256 -11.32479 -11.32395 -11.32206
 Alpha  occ. eigenvalues --  -11.32064 -11.30255 -11.30200 -11.30051 -11.29112
 Alpha  occ. eigenvalues --  -11.29038 -11.28786 -11.28465 -11.27267 -11.26367
 Alpha  occ. eigenvalues --   -1.49959  -1.42641  -1.32620  -1.30284  -1.27606
 Alpha  occ. eigenvalues --   -1.24274  -1.22213  -1.19803  -1.19129  -1.17346
 Alpha  occ. eigenvalues --   -1.14533  -1.12883  -1.12166  -1.10044  -1.07370
 Alpha  occ. eigenvalues --   -1.06825  -1.06380  -1.05338  -1.04718  -1.03596
 Alpha  occ. eigenvalues --   -1.02884  -0.97164  -0.96826  -0.94938  -0.94370
 Alpha  occ. eigenvalues --   -0.92474  -0.90690  -0.88902  -0.87952  -0.87098
 Alpha  occ. eigenvalues --   -0.86003  -0.85246  -0.84818  -0.82600  -0.82127
 Alpha  occ. eigenvalues --   -0.79501  -0.78215  -0.77594  -0.76677  -0.76157
 Alpha  occ. eigenvalues --   -0.74489  -0.74438  -0.73804  -0.73486  -0.72838
 Alpha  occ. eigenvalues --   -0.72371  -0.71829  -0.70866  -0.70422  -0.70203
 Alpha  occ. eigenvalues --   -0.69197  -0.68924  -0.68280  -0.68227  -0.67399
 Alpha  occ. eigenvalues --   -0.66353  -0.66289  -0.65719  -0.65138  -0.64664
 Alpha  occ. eigenvalues --   -0.64223  -0.63356  -0.63084  -0.62005  -0.61736
 Alpha  occ. eigenvalues --   -0.61638  -0.61412  -0.60944  -0.60827  -0.60353
 Alpha  occ. eigenvalues --   -0.59358  -0.59090  -0.58739  -0.57719  -0.57479
 Alpha  occ. eigenvalues --   -0.56331  -0.55886  -0.55086  -0.54897  -0.54213
 Alpha  occ. eigenvalues --   -0.52712  -0.51810  -0.48747  -0.48167  -0.46495
 Alpha  occ. eigenvalues --   -0.44903  -0.44283  -0.40921  -0.39198  -0.37283
 Alpha  occ. eigenvalues --   -0.34572
 Alpha virt. eigenvalues --   -0.01088   0.01327   0.04672   0.05442   0.06603
 Alpha virt. eigenvalues --    0.07895   0.08507   0.09948   0.10041   0.11619
 Alpha virt. eigenvalues --    0.12466   0.13713   0.13992   0.14285   0.14920
 Alpha virt. eigenvalues --    0.16293   0.16594   0.16716   0.17256   0.17570
 Alpha virt. eigenvalues --    0.17855   0.18027   0.18114   0.18477   0.19375
 Alpha virt. eigenvalues --    0.19579   0.19787   0.20404   0.20706   0.21887
 Alpha virt. eigenvalues --    0.22005   0.22649   0.22887   0.23195   0.23765
 Alpha virt. eigenvalues --    0.24083   0.24382   0.24982   0.25027   0.25210
 Alpha virt. eigenvalues --    0.25757   0.25872   0.26278   0.26769   0.26929
 Alpha virt. eigenvalues --    0.27618   0.27756   0.28627   0.29044   0.29230
 Alpha virt. eigenvalues --    0.29687   0.30154   0.30833   0.31144   0.31506
 Alpha virt. eigenvalues --    0.31760   0.32129   0.32321   0.33691   0.35079
 Alpha virt. eigenvalues --    0.35749   0.36661   0.37246   0.37784   0.38264
 Alpha virt. eigenvalues --    0.38702   0.38957   0.40301   0.40819   0.41941
 Alpha virt. eigenvalues --    0.42523   0.43152   0.44081   0.46112   0.46578
 Alpha virt. eigenvalues --    0.47726   0.48946   0.49484   0.50329   0.51504
 Alpha virt. eigenvalues --    0.53965   0.54411   0.55372   0.56035   0.57075
 Alpha virt. eigenvalues --    0.58091   0.59401   0.60479   0.60791   0.61079
 Alpha virt. eigenvalues --    0.62722   0.63433   0.63638   0.64459   0.65874
 Alpha virt. eigenvalues --    0.66172   0.66738   0.66955   0.67389   0.67635
 Alpha virt. eigenvalues --    0.67938   0.68454   0.69000   0.69261   0.69815
 Alpha virt. eigenvalues --    0.70407   0.70915   0.71166   0.71392   0.71966
 Alpha virt. eigenvalues --    0.72296   0.72470   0.72861   0.73174   0.73678
 Alpha virt. eigenvalues --    0.74361   0.75013   0.75513   0.75732   0.76101
 Alpha virt. eigenvalues --    0.76583   0.76861   0.77148   0.77603   0.77768
 Alpha virt. eigenvalues --    0.78020   0.78132   0.78367   0.79168   0.80382
 Alpha virt. eigenvalues --    0.80575   0.81172   0.81685   0.82286   0.83417
 Alpha virt. eigenvalues --    0.84301   0.84586   0.84932   0.85453   0.86384
 Alpha virt. eigenvalues --    0.87068   0.87266   0.87938   0.88428   0.89421
 Alpha virt. eigenvalues --    0.89821   0.90626   0.91255   0.91450   0.92427
 Alpha virt. eigenvalues --    0.92801   0.93415   0.94032   0.94883   0.95711
 Alpha virt. eigenvalues --    0.95960   0.96502   0.97983   0.98490   0.98717
 Alpha virt. eigenvalues --    0.99196   1.00082   1.00177   1.00625   1.01044
 Alpha virt. eigenvalues --    1.01126   1.02051   1.02167   1.02813   1.03525
 Alpha virt. eigenvalues --    1.03780   1.04207   1.04627   1.04972   1.05158
 Alpha virt. eigenvalues --    1.05491   1.05667   1.05996   1.06204   1.06695
 Alpha virt. eigenvalues --    1.06916   1.07086   1.07453   1.08525   1.08808
 Alpha virt. eigenvalues --    1.09047   1.09800   1.09870   1.10484   1.10775
 Alpha virt. eigenvalues --    1.10948   1.11171   1.11404   1.11850   1.12184
 Alpha virt. eigenvalues --    1.12596   1.12747   1.13410   1.14040   1.14117
 Alpha virt. eigenvalues --    1.14675   1.14785   1.15490   1.15971   1.16199
 Alpha virt. eigenvalues --    1.17187   1.17330   1.17931   1.18185   1.18778
 Alpha virt. eigenvalues --    1.19986   1.20406   1.21624   1.22586   1.23681
 Alpha virt. eigenvalues --    1.25204   1.25316   1.25861   1.26399   1.26951
 Alpha virt. eigenvalues --    1.27307   1.28484   1.29725   1.30182   1.30879
 Alpha virt. eigenvalues --    1.31834   1.32796   1.33794   1.34783   1.35706
 Alpha virt. eigenvalues --    1.36297   1.37422   1.37876   1.39154   1.40502
 Alpha virt. eigenvalues --    1.41113   1.41919   1.43053   1.43807   1.44673
 Alpha virt. eigenvalues --    1.44952   1.46209   1.46917   1.48365   1.51020
 Alpha virt. eigenvalues --    1.51866   1.52816   1.53875   1.55339   1.57321
 Alpha virt. eigenvalues --    1.58135   1.59240   1.59579   1.60332   1.61609
 Alpha virt. eigenvalues --    1.61659   1.62998   1.63979   1.64363   1.64813
 Alpha virt. eigenvalues --    1.65481   1.66847   1.67355   1.67803   1.68448
 Alpha virt. eigenvalues --    1.68912   1.69680   1.71082   1.71741   1.72157
 Alpha virt. eigenvalues --    1.72711   1.73245   1.75270   1.76602   1.77868
 Alpha virt. eigenvalues --    1.79929   1.81358   1.83139   1.84143   1.85223
 Alpha virt. eigenvalues --    1.85568   1.88819   1.90482   1.92259   1.92537
 Alpha virt. eigenvalues --    1.93943   1.94879   1.95469   1.96965   1.97260
 Alpha virt. eigenvalues --    1.98010   1.98228   1.99731   2.00593   2.01283
 Alpha virt. eigenvalues --    2.01899   2.02052   2.03078   2.03725   2.03936
 Alpha virt. eigenvalues --    2.04941   2.05493   2.05703   2.06187   2.06661
 Alpha virt. eigenvalues --    2.06992   2.07538   2.08746   2.09911   2.10182
 Alpha virt. eigenvalues --    2.10812   2.10978   2.11873   2.12226   2.13384
 Alpha virt. eigenvalues --    2.13995   2.15335   2.15954   2.17397   2.17856
 Alpha virt. eigenvalues --    2.18235   2.18471   2.19327   2.20236   2.21262
 Alpha virt. eigenvalues --    2.22328   2.22866   2.22943   2.23505   2.24025
 Alpha virt. eigenvalues --    2.24544   2.25149   2.25438   2.27172   2.27998
 Alpha virt. eigenvalues --    2.28524   2.29804   2.30336   2.30493   2.31028
 Alpha virt. eigenvalues --    2.32059   2.32619   2.33097   2.34347   2.34436
 Alpha virt. eigenvalues --    2.35369   2.37030   2.37399   2.38641   2.39275
 Alpha virt. eigenvalues --    2.39617   2.41758   2.42412   2.43324   2.44359
 Alpha virt. eigenvalues --    2.45792   2.46215   2.46593   2.47614   2.47813
 Alpha virt. eigenvalues --    2.48450   2.49749   2.50549   2.50780   2.52071
 Alpha virt. eigenvalues --    2.52678   2.53359   2.53853   2.54243   2.55463
 Alpha virt. eigenvalues --    2.55772   2.56190   2.56423   2.57503   2.58250
 Alpha virt. eigenvalues --    2.58614   2.60102   2.60340   2.61093   2.64306
 Alpha virt. eigenvalues --    2.64575   2.65331   2.65684   2.66300   2.69270
 Alpha virt. eigenvalues --    2.69580   2.70862   2.72539   2.74831   2.75698
 Alpha virt. eigenvalues --    2.77310   2.77756   2.80195   2.80868   2.81520
 Alpha virt. eigenvalues --    2.82980   2.83805   2.84906   2.85716   2.86144
 Alpha virt. eigenvalues --    2.86760   2.88736   2.89844   2.90041   2.90500
 Alpha virt. eigenvalues --    2.91383   2.92865   2.93644   2.94570   2.95625
 Alpha virt. eigenvalues --    2.96889   2.98291   2.98508   2.99416   3.00897
 Alpha virt. eigenvalues --    3.01441   3.01972   3.02717   3.03647   3.04903
 Alpha virt. eigenvalues --    3.06892   3.07511   3.09498   3.10194   3.11340
 Alpha virt. eigenvalues --    3.13068   3.17010   3.19059   3.20879   3.23983
 Alpha virt. eigenvalues --    3.25260   3.26494   3.32881   3.39387   3.47577
 Alpha virt. eigenvalues --    3.49840   3.54782   3.62136   3.70668   3.73306
 Alpha virt. eigenvalues --    4.28704   4.38781   4.40205   4.41858   4.42875
 Alpha virt. eigenvalues --    4.44829   4.45202   4.45789   4.47452   4.48143
 Alpha virt. eigenvalues --    4.49308   4.49444   4.50920   4.53121   4.55570
 Alpha virt. eigenvalues --    4.58573   4.61455   4.64688   4.64811   4.66942
 Alpha virt. eigenvalues --    4.69697   4.70130   4.71460   4.74062   4.74732
 Alpha virt. eigenvalues --    4.80107   4.80526   4.82054   4.83249   4.86975
 Alpha virt. eigenvalues --    4.93378   5.01876   5.04478   5.09120   5.15030
          Condensed to atoms (all electrons):
 Mulliken atomic charges:
              1
     1  C   -0.500718
     2  C   -0.309329
     3  C    0.072561
     4  C   -0.381079
     5  C    0.104112
     6  N   -0.892683
     7  C    0.394644
     8  C   -0.281373
     9  C   -0.178629
    10  C   -0.241635
    11  C   -0.178146
    12  C   -0.283668
    13  C   -0.034473
    14  C   -0.229368
    15  C   -0.001081
    16  C   -0.218472
    17  C   -0.207927
    18  C    0.312948
    19  N   -0.797618
    20  C    0.751665
    21  C   -0.580086
    22  O   -0.612091
    23  C    0.029564
    24  C   -0.207079
    25  C   -0.212375
    26  C   -0.030838
    27  C   -0.213757
    28  C   -0.191275
    29  C   -0.355248
    30  C   -0.333324
    31  C   -0.354592
    32  C   -0.190060
    33  C   -0.221687
    34  C   -0.209325
    35  H    0.217515
    36  H    0.201501
    37  H    0.179017
    38  H    0.153553
    39  H    0.173943
    40  H    0.207994
    41  H    0.153953
    42  H    0.205963
    43  H    0.173986
    44  H    0.387053
    45  H    0.197571
    46  H    0.208525
    47  H    0.195948
    48  H    0.206607
    49  H    0.207866
    50  H    0.241949
    51  H    0.217456
    52  H    0.233124
    53  H    0.227775
    54  H    0.192048
    55  H    0.181574
    56  H    0.242399
    57  H    0.220120
    58  H    0.247347
    59  H    0.249556
    60  H    0.263745
    61  H    0.229059
    62  H    0.193205
    63  H    0.230524
    64  H    0.219826
    65  H    0.188104
    66  H    0.191273
    67  H    0.230795
    68  H    0.241179
    69  H    0.235672
    70  H    0.210401
    71  H    0.238538
    72  N   -0.656166
    73  H    0.441948
 Sum of Mulliken charges=   1.00000
 Atomic charges with hydrogens summed into heavy atoms:
              1
     1  C    0.005795
     2  C    0.052618
     3  C    0.290076
     4  C   -0.001129
     5  C    0.305613
     6  N   -0.505630
     7  C    0.394644
     8  C   -0.083802
     9  C    0.029895
    10  C   -0.045688
    11  C    0.028460
    12  C   -0.075802
    13  C   -0.034473
    14  C    0.012581
    15  C   -0.001081
    16  C   -0.001016
    17  C    0.025196
    18  C    0.312948
    19  N   -0.797618
    20  C    0.751665
    21  C    0.021310
    22  O   -0.612091
    23  C    0.029564
    24  C    0.035319
    25  C    0.007745
    26  C   -0.030838
    27  C    0.283146
    28  C    0.301528
    29  C    0.068481
    30  C    0.074606
    31  C    0.067476
    32  C    0.286791
    33  C   -0.011286
    34  C    0.029213
    35  H    0.000000
    36  H    0.000000
    37  H    0.000000
    38  H    0.000000
    39  H    0.000000
    40  H    0.000000
    41  H    0.000000
    42  H    0.000000
    43  H    0.000000
    44  H    0.000000
    45  H    0.000000
    46  H    0.000000
    47  H    0.000000
    48  H    0.000000
    49  H    0.000000
    50  H    0.000000
    51  H    0.000000
    52  H    0.000000
    53  H    0.000000
    54  H    0.000000
    55  H    0.000000
    56  H    0.000000
    57  H    0.000000
    58  H    0.000000
    59  H    0.000000
    60  H    0.000000
    61  H    0.000000
    62  H    0.000000
    63  H    0.000000
    64  H    0.000000
    65  H    0.000000
    66  H    0.000000
    67  H    0.000000
    68  H    0.000000
    69  H    0.000000
    70  H    0.000000
    71  H    0.000000
    72  N   -0.214219
    73  H    0.000000
 Sum of Mulliken charges=   1.00000
 Entering OneElI...
 OneElI was handed  5737513 working-precision words.
 Multipole integrals L=0 to 4 MinM= 0 MaxM= 0.
 Requested accuracy = 0.1000D-12
 PrsmSu:  NPrtUS=   1 ThrOK=F
 PRISM was handed     4616557 working-precision words and 12716 shell-pairs
 Electronic moments (au):
  -252.00000000   -11.08859522    -1.18398888    -0.91132506
-19124.77583402 -4409.98146046 -1433.93186775    17.04810520
    -9.82065986    -5.62054068 53928.24690468-15310.36899941
  -795.05914586 -2770.06025902 17553.99712467  -775.07022847
 -5160.75300996   545.44205631 -2853.73614694  5134.10808958
******************************-24928.00066549 68849.35187624
121166.01618215 -8941.91695309 -6744.79798924 -5516.30895565
  2731.62539923******************************-24677.64282861
 12280.10052121-10628.64709481 12768.99483662
 Electronic spatial extent (au):  <R**2>= 24968.6892
 Nuclear    moments (au):
   253.00000000     0.00000000     0.00000000     0.00000000
 19096.49001567  4269.09383339  1288.64513943     0.00000000
     0.00000000     0.00000000-56126.32717917 15246.00128210
   802.28976809  2643.29782589-17634.50422182   624.60062144
  5100.33396768  -525.08218788  2854.94257949 -5147.23319865
***************204558.98003789 20072.44923842-65312.81623462
***************  8501.86071562  6236.96121263  5653.02488118
 -2866.74219417120981.96547975113974.61853128 21295.50773894
-11879.98881208 10450.80073885-12734.87351136
 Total      moments (au):
     1.00000000   -11.08859522    -1.18398888    -0.91132506
   -28.28581835  -140.88762707  -145.28672833    17.04810520
    -9.82065986    -5.62054068 -2198.08027449   -64.36771731
     7.23062223  -126.76243313   -80.50709715  -150.46960703
   -60.41904228    20.35986843     1.20643255   -13.12510907
-47044.13202107-15607.76234216 -4855.55142707  3536.53564162
 -2383.50368647  -440.05623747  -507.83677662   136.71592553
  -135.11679494-13127.97329675-11799.99115392 -3382.13508967
   400.11170913  -177.84635596    34.12132525
 Charge=     1.0000 electrons
 Dipole moment (field-independent basis, Debye):
    X=   -28.1844    Y=    -3.0094    Z=    -2.3164  Tot=    28.4391
 Quadrupole moment (field-independent basis, Debye-Ang):
   XX=   -38.0454   YY=  -189.4987   ZZ=  -195.4156
   XY=    22.9303   XZ=   -13.2091   YZ=    -7.5598
 Traceless Quadrupole moment (field-independent basis, Debye-Ang):
   XX=   102.9412   YY=   -48.5121   ZZ=   -54.4291
   XY=    22.9303   XZ=   -13.2091   YZ=    -7.5598
 Octapole moment (field-independent basis, Debye-Ang**2):
  XXX= -1564.5087  YYY=   -45.8145  ZZZ=     5.1465  XYY=   -90.2246
  XXY=   -57.3018  XXZ=  -107.0985  XZZ=   -43.0039  YZZ=    14.4914
  YYZ=     0.8587  XYZ=    -9.3419
 Hexadecapole moment (field-independent basis, Debye-Ang**3):
 XXXX=-17719.0745 YYYY= -5878.6312 ZZZZ= -1828.8333 XXXY=  1332.0288
 XXXZ=  -897.7417 YYYX=  -165.7463 YYYZ=  -191.2757 ZZZX=    51.4938
 ZZZY=   -50.8915 XXYY= -4944.6238 XXZZ= -4444.4421 YYZZ= -1273.8741
 XXYZ=   150.7012 YYXZ=   -66.9855 ZZXY=    12.8517
 N-N= 3.524849187166D+03 E-N=-1.036626348543D+04  KE= 1.430832562251D+03
 Entering OneElI...
 OneElI was handed  5012685 working-precision words.
 Calculate electrostatic properties
    NBasis =   601  MinDer = 0  MaxDer = 0
    NGrid  =    73  NMatD  =   1
 Requested accuracy = 0.1000D-12
 PrsmSu:  NPrtUS=   1 ThrOK=F
 PRISM was handed     4005188 working-precision words and 10806 shell-pairs
 --------------------------------------------------------
       Center         ----      EFG at Nuclei      ----
                      3XX-RR        3YY-RR        3ZZ-RR
 --------------------------------------------------------
     1   Atom       -0.005242      0.000023      0.005219
     2   Atom        0.010074     -0.004754     -0.005321
     3   Atom        0.029262     -0.050970      0.021707
     4   Atom       -0.025406      0.029147     -0.003741
     5   Atom        0.008123     -0.106527      0.098404
     6   Atom        0.433117      0.040651     -0.473768
     7   Atom       -0.186546     -0.018357      0.204903
     8   Atom       -0.048200     -0.000073      0.048273
     9   Atom       -0.132907     -0.030401      0.163307
    10   Atom       -0.089058     -0.010046      0.099104
    11   Atom       -0.124696      0.008675      0.116021
    12   Atom       -0.054672      0.013608      0.041064
    13   Atom        0.142212      0.113402     -0.255614
    14   Atom        0.151368      0.155449     -0.306816
    15   Atom        0.049150      0.177983     -0.227133
    16   Atom        0.164762      0.132804     -0.297566
    17   Atom        0.161007      0.107840     -0.268847
    18   Atom       -0.084404      0.275037     -0.190633
    19   Atom       -0.513572      0.519310     -0.005738
    20   Atom        0.343385     -0.369696      0.026312
    21   Atom        0.041877      0.002059     -0.043936
    22   Atom       -0.911856     -0.374353      1.286209
    23   Atom        0.178606     -0.130028     -0.048578
    24   Atom        0.154284     -0.117135     -0.037149
    25   Atom        0.193192     -0.135660     -0.057533
    26   Atom       -0.016747     -0.011567      0.028314
    27   Atom        0.041785      0.025970     -0.067755
    28   Atom        0.227236     -0.415197      0.187961
    29   Atom        0.006971      0.025710     -0.032680
    30   Atom       -0.025094     -0.036762      0.061855
    31   Atom        0.024507      0.014249     -0.038756
    32   Atom       -0.369795      0.166370      0.203424
    33   Atom        0.177791     -0.125100     -0.052691
    34   Atom        0.148562     -0.112819     -0.035743
    35   Atom       -0.033663      0.035026     -0.001363
    36   Atom        0.107231      0.104900     -0.212131
    37   Atom        0.027059     -0.004243     -0.022815
    38   Atom        0.042269     -0.055075      0.012805
    39   Atom       -0.038683      0.044875     -0.006192
    40   Atom        0.022904     -0.075028      0.052124
    41   Atom       -0.034749      0.051165     -0.016417
    42   Atom        0.006681     -0.149823      0.143142
    43   Atom        0.109116      0.105805     -0.214921
    44   Atom        0.175983      0.157917     -0.333900
    45   Atom        0.138442      0.141217     -0.279660
    46   Atom        0.079040     -0.114212      0.035172
    47   Atom       -0.038016     -0.010223      0.048239
    48   Atom        0.133396      0.142374     -0.275770
    49   Atom        0.090004     -0.113328      0.023323
    50   Atom        0.022283     -0.158835      0.136552
    51   Atom        0.049410     -0.217950      0.168539
    52   Atom        0.031427     -0.179788      0.148360
    53   Atom        0.027801      0.150551     -0.178352
    54   Atom        0.137489     -0.266928      0.129439
    55   Atom       -0.179474      0.041046      0.138428
    56   Atom        0.003666     -0.004761      0.001095
    57   Atom        0.067374      0.022385     -0.089758
    58   Atom        0.121666      0.104342     -0.226008
    59   Atom        0.108821     -0.250900      0.142079
    60   Atom       -0.260411      0.111056      0.149356
    61   Atom        0.119063      0.092245     -0.211308
    62   Atom        0.082963      0.125928     -0.208892
    63   Atom        0.138196     -0.277456      0.139259
    64   Atom        0.050009      0.051983     -0.101993
    65   Atom        0.075193      0.097891     -0.173083
    66   Atom        0.107915      0.102532     -0.210447
    67   Atom       -0.268911      0.123711      0.145200
    68   Atom        0.125253     -0.276330      0.151077
    69   Atom        0.074744      0.130736     -0.205480
    70   Atom       -0.003279     -0.007498      0.010777
    71   Atom        0.071377      0.021283     -0.092661
    72   Atom        0.003402      0.000398     -0.003801
    73   Atom        0.125923      0.142183     -0.268106
 --------------------------------------------------------
                        XY            XZ            YZ
 --------------------------------------------------------
     1   Atom       -0.015555      0.016581      0.021757
[...]
 **** Fit       0.093602
 **** Fit       0.092812
 **** Fit       0.092758
 **** Fit       0.093428
 **** Fit       0.094845
 **** Fit       0.097068
 **** Fit       0.100194
 **** Fit       0.104349
 **** Fit       0.109695
 **** Fit       0.108970
 **** Fit       0.103778
 **** Fit       0.099846
 **** Fit       0.097008
 **** Fit       0.095124
 **** Fit       0.094090
 **** Fit       0.093845
 **** Fit       0.094364
 **** Fit       0.095662
 **** Fit       0.097788
 **** Fit       0.100827
 **** Fit       0.104898
 **** Fit       0.110170
 **** Fit       0.116890
 **** Fit       0.110351
 **** Fit       0.104974
 **** Fit       0.100951
 **** Fit       0.098135
 **** Fit       0.096397
 **** Fit       0.095643
 **** Fit       0.095824
 **** Fit       0.096936
 **** Fit       0.099020
 **** Fit       0.102164
 **** Fit       0.106504
 **** Fit       0.112243
 **** Fit       0.112419
 **** Fit       0.106778
 **** Fit       0.102649
 **** Fit       0.099891
 **** Fit       0.098387
 **** Fit       0.098056
 **** Fit       0.098871
 **** Fit       0.100857
 **** Fit       0.104094
 **** Fit       0.108719
 **** Fit       0.114927
 **** Fit       0.113912
 **** Fit       0.108086
 **** Fit       0.104095
 **** Fit       0.101834
 **** Fit       0.101214
 **** Fit       0.102193
 **** Fit       0.104796
 **** Fit       0.109103
 **** Fit       0.115202
 **** Fit       0.114631
 **** Fit       0.108828
 **** Fit       0.105753
 **** Fit       0.105475
 **** Fit       0.107967
 **** Fit       0.113133
 **** Fit       0.120491
 **** Fit       0.115610
 **** Fit       0.110683
 **** Fit       0.111932
 **** Fit       0.118455
 **** Fit       0.124594
 **** Fit       0.116860
 **** Fit       0.103445
 **** Fit       0.106403
 **** Fit       0.104835
 **** Fit       0.102356
 **** Fit       0.101268
 **** Fit       0.102627
 **** Fit       0.105272
 **** Fit       0.110264
 **** Fit       0.109075
 **** Fit       0.106854
 **** Fit       0.104310
 **** Fit       0.102008
 **** Fit       0.100384
 **** Fit       0.099808
 **** Fit       0.100485
 **** Fit       0.102362
 **** Fit       0.105069
 **** Fit       0.107882
 **** Fit       0.109856
 **** Fit       0.115219
 **** Fit       0.114059
 **** Fit       0.112055
 **** Fit       0.109597
 **** Fit       0.107038
 **** Fit       0.104618
 **** Fit       0.102453
 **** Fit       0.100679
 **** Fit       0.099491
 **** Fit       0.099046
 **** Fit       0.099425
 **** Fit       0.100646
 **** Fit       0.102659
 **** Fit       0.105319
 **** Fit       0.108357
 **** Fit       0.111362
 **** Fit       0.113806
 **** Fit       0.115177
 **** Fit       0.121567
 **** Fit       0.120208
 **** Fit       0.118102
 **** Fit       0.115533
 **** Fit       0.112750
 **** Fit       0.110036
 **** Fit       0.107549
 **** Fit       0.105254
 **** Fit       0.103119
 **** Fit       0.101274
 **** Fit       0.099911
 **** Fit       0.099152
 **** Fit       0.099042
 **** Fit       0.099601
 **** Fit       0.100845
 **** Fit       0.102774
 **** Fit       0.105335
 **** Fit       0.108415
 **** Fit       0.111825
 **** Fit       0.115288
 **** Fit       0.118411
 **** Fit       0.120721
 **** Fit       0.121813
 **** Fit       0.129770
 **** Fit       0.127992
 **** Fit       0.100187
 **** Fit       0.101190
 **** Fit       0.102840
 **** Fit       0.105148
 **** Fit       0.108074
 **** Fit       0.111530
 **** Fit       0.115389
 **** Fit       0.119471
 **** Fit       0.123485
 **** Fit       0.126990
 **** Fit       0.129438
 **** Fit       0.130384
 **** Fit       0.105841
 **** Fit       0.108494
 **** Fit       0.111766
 **** Fit       0.115584
 **** Fit       0.119868
 **** Fit       0.124525
 **** Fit       0.129401
 **** Fit       0.134179
 **** Fit       0.138306
 **** Fit       0.114340
 **** Fit       0.118456
 **** Fit       0.123161
 **** Fit       0.128413
 **** Fit       0.134219
 **** Fit       0.140524
 **** Fit       0.097265
 **** Fit       0.097714
 **** Fit       0.099413
 **** Fit       0.096737
 **** Fit       0.095649
 **** Fit       0.095528
 **** Fit       0.096314
 **** Fit       0.098012
 **** Fit       0.100685
 **** Fit       0.097035
 **** Fit       0.095291
 **** Fit       0.094446
 **** Fit       0.094384
 **** Fit       0.095056
 **** Fit       0.096470
 **** Fit       0.098684
 **** Fit       0.101802
 **** Fit       0.098039
 **** Fit       0.095797
 **** Fit       0.094433
 **** Fit       0.093791
 **** Fit       0.093786
 **** Fit       0.094381
 **** Fit       0.095586
 **** Fit       0.097451
 **** Fit       0.100068
 **** Fit       0.103569
 **** Fit       0.097375
 **** Fit       0.095381
 **** Fit       0.094178
 **** Fit       0.093635
 **** Fit       0.093680
 **** Fit       0.094286
 **** Fit       0.095468
 **** Fit       0.097278
 **** Fit       0.099815
 **** Fit       0.103224
 **** Fit       0.107704
 **** Fit       0.097166
 **** Fit       0.095430
 **** Fit       0.094385
 **** Fit       0.093936
 **** Fit       0.094027
 **** Fit       0.094640
 **** Fit       0.095793
 **** Fit       0.097539
 **** Fit       0.099973
 **** Fit       0.103240
 **** Fit       0.107549
 **** Fit       0.113196
 **** Fit       0.098731
 **** Fit       0.096768
 **** Fit       0.095497
 **** Fit       0.094827
 **** Fit       0.094699
 **** Fit       0.095088
 **** Fit       0.095998
 **** Fit       0.097466
 **** Fit       0.099570
 **** Fit       0.102432
 **** Fit       0.106236
 **** Fit       0.111254
 **** Fit       0.099047
 **** Fit       0.097354
 **** Fit       0.096345
 **** Fit       0.095948
 **** Fit       0.096124
 **** Fit       0.096865
 **** Fit       0.098201
 **** Fit       0.100204
 **** Fit       0.102994
 **** Fit       0.106761
 **** Fit       0.111788
 **** Fit       0.101280
 **** Fit       0.099339
 **** Fit       0.098187
 **** Fit       0.097743
 **** Fit       0.097964
 **** Fit       0.098845
 **** Fit       0.100427
 **** Fit       0.102807
 **** Fit       0.106143
 **** Fit       0.110685
 **** Fit       0.104315
 **** Fit       0.102030
 **** Fit       0.100688
 **** Fit       0.100176
 **** Fit       0.100438
 **** Fit       0.101473
 **** Fit       0.103334
 **** Fit       0.106140
 **** Fit       0.110087
 **** Fit       0.105974
 **** Fit       0.104110
 **** Fit       0.103389
 **** Fit       0.103712
 **** Fit       0.105076
 **** Fit       0.107568
 **** Fit       0.111373
 **** Fit       0.108616
 **** Fit       0.107574
 **** Fit       0.107973
 **** Fit       0.109804
 **** Fit       0.113205
 **** Fit       0.113585
 **** Fit       0.113014
 **** Fit       0.114649
 **** Fit       0.123380
 **** Fit       0.126297
 **** Fit       0.132163
 **** Fit       0.119126
 **** Fit       0.119420
 **** Fit       0.121528
 **** Fit       0.125510
 **** Fit       0.131442
 **** Fit       0.139325
 **** Fit       0.116220
 **** Fit       0.116174
 **** Fit       0.117474
 **** Fit       0.120156
 **** Fit       0.124314
 **** Fit       0.130098
 **** Fit       0.137670
 **** Fit       0.147148
 **** Fit       0.114564
 **** Fit       0.113848
 **** Fit       0.114287
 **** Fit       0.115856
 **** Fit       0.118599
 **** Fit       0.122623
 **** Fit       0.128099
 **** Fit       0.135253
 **** Fit       0.144324
 **** Fit       0.113776
 **** Fit       0.112549
 **** Fit       0.112361
 **** Fit       0.113139
 **** Fit       0.114875
 **** Fit       0.117619
 **** Fit       0.121481
 **** Fit       0.126630
 **** Fit       0.133283
 **** Fit       0.141703
 **** Fit       0.113332
 **** Fit       0.111824
 **** Fit       0.111360
 **** Fit       0.111838
 **** Fit       0.113227
 **** Fit       0.115561
 **** Fit       0.118934
 **** Fit       0.123506
 **** Fit       0.129490
 **** Fit       0.113372
 **** Fit       0.111658
 **** Fit       0.110964
 **** Fit       0.111173
 **** Fit       0.112242
 **** Fit       0.114190
 **** Fit       0.117095
 **** Fit       0.121105
 **** Fit       0.126437
 **** Fit       0.115017
 **** Fit       0.112654
 **** Fit       0.111375
 **** Fit       0.111031
 **** Fit       0.111548
 **** Fit       0.112914
 **** Fit       0.115180
 **** Fit       0.118463
 **** Fit       0.122971
 **** Fit       0.114142
 **** Fit       0.112394
 **** Fit       0.111681
 **** Fit       0.111913
 **** Fit       0.113064
 **** Fit       0.115181
 **** Fit       0.118397
 **** Fit       0.122968
 **** Fit       0.113368
 **** Fit       0.112867
 **** Fit       0.113414
 **** Fit       0.115020
 **** Fit       0.117792
 **** Fit       0.121978
 **** Fit       0.115044
 **** Fit       0.114798
 **** Fit       0.115720
 **** Fit       0.117867
 **** Fit       0.121427
 **** Fit       0.117451
 **** Fit       0.117909
 **** Fit       0.119889
 **** Fit       0.123577
 **** Fit       0.126313
 **** Fit       0.117796
 **** Fit       0.116339
 **** Fit       0.115370
 **** Fit       0.114876
 **** Fit       0.114907
 **** Fit       0.117928
 **** Fit       0.115747
 **** Fit       0.114252
 **** Fit       0.113323
 **** Fit       0.112924
 **** Fit       0.113079
 **** Fit       0.113843
 **** Fit       0.115295
 **** Fit       0.119834
 **** Fit       0.116849
 **** Fit       0.114669
 **** Fit       0.113174
 **** Fit       0.112282
 **** Fit       0.111960
 **** Fit       0.112222
 **** Fit       0.113111
 **** Fit       0.114701
 **** Fit       0.117083
 **** Fit       0.120371
 **** Fit       0.124408
 **** Fit       0.120267
 **** Fit       0.117018
 **** Fit       0.114620
 **** Fit       0.113001
 **** Fit       0.112098
 **** Fit       0.111884
 **** Fit       0.112377
 **** Fit       0.113633
 **** Fit       0.115739
 **** Fit       0.118808
 **** Fit       0.122975
 **** Fit       0.126294
 **** Fit       0.121668
 **** Fit       0.118056
 **** Fit       0.115396
 **** Fit       0.113637
 **** Fit       0.112734
 **** Fit       0.112676
 **** Fit       0.113492
 **** Fit       0.115256
 **** Fit       0.118072
 **** Fit       0.122074
 **** Fit       0.127428
 **** Fit       0.127527
 **** Fit       0.122527
 **** Fit       0.118683
 **** Fit       0.116013
 **** Fit       0.114507
 **** Fit       0.114162
 **** Fit       0.115013
 **** Fit       0.117140
 **** Fit       0.120659
 **** Fit       0.125689
 **** Fit       0.133521
 **** Fit       0.127863
 **** Fit       0.122604
 **** Fit       0.118785
 **** Fit       0.116805
 **** Fit       0.116816
 **** Fit       0.118920
 **** Fit       0.123147
 **** Fit       0.130713
 **** Fit       0.128606
 **** Fit       0.123295
 **** Fit       0.120101
 **** Fit       0.121406
 **** Fit       0.126586
 **** Fit       0.124616
 **** Fit       0.106828
 **** Fit       0.104344
 **** Fit       0.107053
 **** Fit       0.110782
 **** Fit       0.110488
 **** Fit       0.106568
 **** Fit       0.103978
 **** Fit       0.103192
 **** Fit       0.111747
 **** Fit       0.116222
 **** Fit       0.117647
 **** Fit       0.115287
 **** Fit       0.110836
 **** Fit       0.106367
 **** Fit       0.103220
 **** Fit       0.101938
 **** Fit       0.102261
 **** Fit       0.123688
 **** Fit       0.126315
 **** Fit       0.125191
 **** Fit       0.121247
 **** Fit       0.116038
 **** Fit       0.110798
 **** Fit       0.106288
 **** Fit       0.102931
 **** Fit       0.100958
 **** Fit       0.100457
 **** Fit       0.101288
 **** Fit       0.136426
 **** Fit       0.131472
 **** Fit       0.125196
 **** Fit       0.118773
 **** Fit       0.112865
 **** Fit       0.107825
 **** Fit       0.103836
 **** Fit       0.101009
 **** Fit       0.099433
 **** Fit       0.099203
 **** Fit       0.140949
 **** Fit       0.132664
 **** Fit       0.124797
 **** Fit       0.117735
 **** Fit       0.111662
 **** Fit       0.106653
 **** Fit       0.102733
 **** Fit       0.099924
 **** Fit       0.098281
 **** Fit       0.097911
 **** Fit       0.141214
 **** Fit       0.131832
 **** Fit       0.123581
 **** Fit       0.116485
 **** Fit       0.110525
 **** Fit       0.105654
 **** Fit       0.101827
 **** Fit       0.099024
 **** Fit       0.097270
 **** Fit       0.096654
 **** Fit       0.097366
 **** Fit       0.150377
 **** Fit       0.138932
 **** Fit       0.129072
 **** Fit       0.120692
 **** Fit       0.113682
 **** Fit       0.107923
 **** Fit       0.103303
 **** Fit       0.099746
 **** Fit       0.097221
 **** Fit       0.095758
 **** Fit       0.095468
 **** Fit       0.135376
 **** Fit       0.125683
 **** Fit       0.117591
 **** Fit       0.110917
 **** Fit       0.105492
 **** Fit       0.101182
 **** Fit       0.097900
 **** Fit       0.095609
 **** Fit       0.094337
 **** Fit       0.125687
 **** Fit       0.117260
 **** Fit       0.110364
 **** Fit       0.104786
 **** Fit       0.100354
 **** Fit       0.096952
 **** Fit       0.094514
 **** Fit       0.114612
 **** Fit       0.107678
 **** Fit       0.102167
 **** Fit       0.097857
 **** Fit       0.106728
 **** Fit       0.086438
 **** Fit       0.084106
 **** Fit       0.085040
 **** Fit       0.087749
 **** Fit       0.089349
 **** Fit       0.087856
 **** Fit       0.085375
 **** Fit       0.082195
 **** Fit       0.082301
 **** Fit       0.083637
 **** Fit       0.086134
 **** Fit       0.089286
 **** Fit       0.092007
 **** Fit       0.093005
 **** Fit       0.091823
 **** Fit       0.089304
 **** Fit       0.086675
 **** Fit       0.084571
 **** Fit       0.083058
 **** Fit       0.080526
 **** Fit       0.080225
 **** Fit       0.080764
 **** Fit       0.082191
 **** Fit       0.084469
 **** Fit       0.087496
 **** Fit       0.091004
 **** Fit       0.094410
 **** Fit       0.096867
 **** Fit       0.097608
 **** Fit       0.096417
 **** Fit       0.093833
 **** Fit       0.090779
 **** Fit       0.087984
 **** Fit       0.085754
 **** Fit       0.084047
 **** Fit       0.082656
 **** Fit       0.081441
 **** Fit       0.078854
 **** Fit       0.078181
 **** Fit       0.078325
 **** Fit       0.079283
 **** Fit       0.080970
 **** Fit       0.102978
 **** Fit       0.100675
 **** Fit       0.097177
 **** Fit       0.093436
 **** Fit       0.090108
 **** Fit       0.087466
 **** Fit       0.085507
 **** Fit       0.084050
 **** Fit       0.082810
 **** Fit       0.081516
 **** Fit       0.080106
 **** Fit       0.076332
 **** Fit       0.077901
 **** Fit       0.098076
 **** Fit       0.093697
 **** Fit       0.090176
 **** Fit       0.087561
 **** Fit       0.085741
 **** Fit       0.084500
 **** Fit       0.083515
 **** Fit       0.082387
 **** Fit       0.098221
 **** Fit       0.093576
 **** Fit       0.090082
 **** Fit       0.087620
 **** Fit       0.086029
 **** Fit       0.085103
 **** Fit       0.084543
 **** Fit       0.095991
 **** Fit       0.091679
 **** Fit       0.088706
 **** Fit       0.086858
 **** Fit       0.085952
 **** Fit       0.085773
 **** Fit       0.089754
 **** Fit       0.087589
 **** Fit       0.086582
 **** Fit       0.086626
 **** Fit       0.087113
 **** Fit       0.086851
 **** Fit       0.137129
 **** Fit       0.134992
 **** Fit       0.136482
 **** Fit       0.138248
 **** Fit       0.136079
 **** Fit       0.133151
 **** Fit       0.133988
 **** Fit       0.136409
 **** Fit       0.139769
 **** Fit       0.137827
 **** Fit       0.135945
 **** Fit       0.134094
 **** Fit       0.131288
 **** Fit       0.131820
 **** Fit       0.133869
 **** Fit       0.141691
 **** Fit       0.140013
 **** Fit       0.138559
 **** Fit       0.136873
 **** Fit       0.132413
 **** Fit       0.129525
 **** Fit       0.131606
 **** Fit       0.143048
 **** Fit       0.141814
 **** Fit       0.129254
 **** Fit       0.145754
 **** Fit       0.130749
 **** Fit       0.149330
 -----------------------------------------------------------------
 Leave Link  602 at Thu Sep 24 00:43:13 2015, MaxMem=    6291456 cpu:      20.9

 Test job not archived.
 1\1\GINC-COMPUTE-2-10\FOpt\RHF\6-31G(d)\C31H38N3O1(1+)\SHUNZHOU\24-Sep
 -2015\0\\#HF/6-31G* SCF=tight Test Pop=MK iop(6/33=2) iop(6/42=6) opt\
 \remark line goes here\\1,1\C,15.87385567,6.8755691808,9.0970979111\C,
 15.0255179512,5.9721713885,9.9933668509\C,14.0678106891,5.0667030807,9
 .2130842037\C,14.8003674141,4.0849217628,8.2755429015\C,14.046469961,2
 .7572568227,8.1330467563\N,14.7093773089,1.8924818833,7.1790957857\C,1
 3.9982040859,1.0283039751,6.3438153991\C,14.5824188635,0.6064586132,5.
 1468117464\C,13.9222263109,-0.2710986565,4.3109689466\C,12.6634644252,
 -0.7548367586,4.640427526\C,12.0844711482,-0.3423127839,5.8255497171\C
 ,12.7389303739,0.5359862477,6.6772748168\C,13.976152238,2.1711716852,9
 .5309446248\C,14.3883569901,0.8960645992,9.8636869836\C,14.3512557955,
 0.4492459155,11.1832458082\C,13.926960329,1.3278417349,12.1729248961\C
 ,13.5447409824,2.6191007802,11.8542219536\C,13.5378234193,3.0366400404
 ,10.5323126766\N,13.1646447875,4.3381500911,10.1326204198\C,11.9958784
 364,4.9688805072,10.4912269694\C,10.9321254491,4.191362169,11.24079117
 73\O,11.8007716864,6.1128085988,10.1908889065\C,14.7756735925,-0.93636
 95953,11.5198837734\C,15.9065461203,-1.5024640553,10.9337337606\C,16.2
 95155241,-2.7948596825,11.2356569794\C,15.566046074,-3.5605087525,12.1
 365410237\C,15.9720385333,-4.9699828231,12.4692131628\C,15.3430386647,
 -6.0243147951,10.2704234959\C,14.394103381,-7.0053553995,9.592745201\C
 ,14.5199548148,-8.4099303855,10.1830023943\C,14.3282457235,-8.36750689
 36,11.6993130144\C,15.2719294692,-7.3677028855,12.3575071829\C,14.4493
 723565,-2.9945122182,12.7431403689\C,14.0556320514,-1.7070866678,12.43
 32695441\H,13.4204665074,5.689362608,8.6157194451\H,13.0364612872,2.97
 76863645,7.7947750977\H,16.4880695585,7.5365516517,9.6988191465\H,16.5
 404830204,6.3091920128,8.4539570125\H,15.2462420188,7.4965960964,8.464
 9328381\H,14.4318171773,6.5885254396,10.6573770129\H,15.6697201314,5.3
 5452174,10.6158145616\H,14.916908231,4.5522110903,7.3033228164\H,15.79
 60667401,3.8671953847,8.6521097231\H,15.4717695475,2.333866711,6.71428
 51218\H,15.5556068539,0.9769663196,4.8726370556\H,14.3907798342,-0.572
 5792141,3.3908889093\H,12.1473544423,-1.4301342061,3.9829369172\H,11.1
 076750953,-0.7008859245,6.0992091391\H,12.2653983536,0.8279499193,7.59
 5575821\H,14.7197567184,0.2431872819,9.079502445\H,13.934884151,1.0256
 230106,13.2046310497\H,13.2714984925,3.30276443,12.635316079\H,9.98466
 15401,4.6510718964,10.999368313\H,11.083464539,4.2855882215,12.3102237
 148\H,10.9077429073,3.1403367166,10.9891571337\H,16.4986163395,-0.9214
 741056,10.2519864902\H,17.1825453616,-3.1965597155,10.7773247765\H,16.
 9943576424,-5.1800949079,12.1892554919\H,15.8584097721,-5.1711281898,1
 3.5252161452\H,15.2078607499,-5.0173329481,9.9090641509\H,16.377406341
 2,-6.3109948471,10.1298197325\H,13.3723052211,-6.6457147448,9.68890653
 74\H,14.6219478643,-7.0068240387,8.5332222316\H,13.78688614,-9.0694608
 964,9.7353147784\H,15.4986573723,-8.820141709,9.9483308939\H,13.300575
 4538,-8.1059176294,11.9404659568\H,14.512440422,-9.3390864251,12.14275
 51852\H,15.0810130186,-7.2769386618,13.4174742161\H,16.3087911438,-7.6
 44778268,12.2176936866\H,13.8827510129,-3.5530524803,13.4707001219\H,1
 3.1772822182,-1.2987713865,12.8971266922\N,15.1142684941,-5.9986146814
 ,11.7578020576\H,14.1564979473,-5.7139886381,11.8996046233\\Version=AM
 64L-G03RevD.02\State=1-A\HF=-1434.1028289\RMSD=7.107e-09\RMSF=2.809e-0
 6\Thermal=0.\Dipole=2.0357679,-10.2874135,3.0093032\PG=C01 [X(C31H38N3
 O1)]\\@


 OUR LITTLE SYSTEMS HAVE THEIR DAY,    
   THEY HAVE THEIR DAY AND CEASE TO BE.
   THEY ARE BUT BROKEN LIGHTS OF THEE, 
 AND THOU, OH LORD, ART MORE THAN THEY.
          -------------------          
 LET KNOWLEDGE GROW FROM MORE TO MORE, 
   BUT MORE OF REVERENCE IN US DWELL.  
   THAT MIND AND SOUL, ACCORDING WELL, 
 MAY MAKE ONE MUSIC AS BEFORE.....     
          -------------------          
                    LORD TENNYSON      
 Job cpu time:  0 days  6 hours 30 minutes 30.6 seconds.
 File lengths (MBytes):  RWF=    235 Int=      0 D2E=      0 Chk=     32 Scr=      1
 Normal termination of Gaussian 03 at Thu Sep 24 00:43:13 2015.
