 Entering Gaussian System, Link 0=g03
 Initial command:
 /share/apps//g03/l1.exe /state/partition1/mmpbsa.x10615/Gau-10622.inp -scrdir=/state/partition1/mmpbsa.x10615/
 Entering Link 1 = /share/apps//g03/l1.exe PID=     10623.
  
 Copyright (c) 1988,1990,1992,1993,1995,1998,2003,2004, Gaussian, Inc.
                  All Rights Reserved.
  
 This is the Gaussian(R) 03 program.  It is based on the
 the Gaussian(R) 98 system (copyright 1998, Gaussian, Inc.),
 the Gaussian(R) 94 system (copyright 1995, Gaussian, Inc.),
 the Gaussian 92(TM) system (copyright 1992, Gaussian, Inc.),
 the Gaussian 90(TM) system (copyright 1990, Gaussian, Inc.),
 the Gaussian 88(TM) system (copyright 1988, Gaussian, Inc.),
 the Gaussian 86(TM) system (copyright 1986, Carnegie Mellon
 University), and the Gaussian 82(TM) system (copyright 1983,
 Carnegie Mellon University). Gaussian is a federally registered
 trademark of Gaussian, Inc.
  
 This software contains proprietary and confidential information,
 including trade secrets, belonging to Gaussian, Inc.
  
 This software is provided under written license and may be
 used, copied, transmitted, or stored only in accord with that
 written license.
  
 The following legend is applicable only to US Government
 contracts under FAR:
  
                    RESTRICTED RIGHTS LEGEND
  
 Use, reproduction and disclosure by the US Government is
 subject to restrictions as set forth in subparagraphs (a)
 and (c) of the Commercial Computer Software - Restricted
 Rights clause in FAR 52.227-19.
  
 Gaussian, Inc.
 340 Quinnipiac St., Bldg. 40, Wallingford CT 06492
  
  
 ---------------------------------------------------------------
 Warning -- This program may not be used in any manner that
 competes with the business of Gaussian, Inc. or will provide
 assistance to any competitor of Gaussian, Inc.  The licensee
 of this program is prohibited from giving any competitor of
 Gaussian, Inc. access to this program.  By using this program,
 the user acknowledges that Gaussian, Inc. is engaged in the
 business of creating and licensing software in the field of
 computational chemistry and represents and warrants to the
 licensee that it is not a competitor of Gaussian, Inc. and that
 it will not use this program in any manner prohibited above.
 ---------------------------------------------------------------
  

 Cite this work as:
 Gaussian 03, Revision D.02,
 M. J. Frisch, G. W. Trucks, H. B. Schlegel, G. E. Scuseria, 
 M. A. Robb, J. R. Cheeseman, J. A. Montgomery, Jr., T. Vreven, 
 K. N. Kudin, J. C. Burant, J. M. Millam, S. S. Iyengar, J. Tomasi, 
 V. Barone, B. Mennucci, M. Cossi, G. Scalmani, N. Rega, 
 G. A. Petersson, H. Nakatsuji, M. Hada, M. Ehara, K. Toyota, 
 R. Fukuda, J. Hasegawa, M. Ishida, T. Nakajima, Y. Honda, O. Kitao, 
 H. Nakai, M. Klene, X. Li, J. E. Knox, H. P. Hratchian, J. B. Cross, 
 V. Bakken, C. Adamo, J. Jaramillo, R. Gomperts, R. E. Stratmann, 
 O. Yazyev, A. J. Austin, R. Cammi, C. Pomelli, J. W. Ochterski, 
 P. Y. Ayala, K. Morokuma, G. A. Voth, P. Salvador, J. J. Dannenberg, 
 V. G. Zakrzewski, S. Dapprich, A. D. Daniels, M. C. Strain, 
 O. Farkas, D. K. Malick, A. D. Rabuck, K. Raghavachari, 
 J. B. Foresman, J. V. Ortiz, Q. Cui, A. G. Baboul, S. Clifford, 
 J. Cioslowski, B. B. Stefanov, G. Liu, A. Liashenko, P. Piskorz, 
 I. Komaromi, R. L. Martin, D. J. Fox, T. Keith, M. A. Al-Laham, 
 C. Y. Peng, A. Nanayakkara, M. Challacombe, P. M. W. Gill, 
 B. Johnson, W. Chen, M. W. Wong, C. Gonzalez, and J. A. Pople, 
 Gaussian, Inc., Wallingford CT, 2004.
 
 ******************************************
 Gaussian 03:  AM64L-G03RevD.02  1-Mar-2006
                23-Sep-2015 
 ******************************************
 %chk=molecule
 ------------------------------------------------------------
 #HF/6-31G* SCF=tight Test Pop=MK iop(6/33=2) iop(6/42=6) opt
 ------------------------------------------------------------
 1/18=20,38=1/1,3;
 2/9=110,17=6,18=5,40=1/2;
 3/5=1,6=6,7=1,11=9,16=1,25=1,30=1/1,2,3;
 4//1;
 5/5=2,32=2,38=5/2;
 6/7=2,8=2,9=2,10=2,15=8,20=1,28=1,33=2,42=6/1,2;
 7//1,2,3,16;
 1/18=20/3(3);
 2/9=110/2;
 6/7=2,8=2,9=2,10=2,15=8,19=2,20=1,28=1,33=2,42=6/1,2;
 99//99;
 2/9=110/2;
 3/5=1,6=6,7=1,11=9,16=1,25=1,30=1/1,2,3;
 4/5=5,16=3/1;
 5/5=2,32=2,38=5/2;
 7//1,2,3,16;
 1/18=20/3(-5);
 2/9=110/2;
 6/7=2,8=2,9=2,10=2,15=8,19=2,20=1,28=1,33=2,42=6/1,2;
 99/9=1/99;
 ---------------------
 remark line goes here
 ---------------------
 Symbolic Z-matrix:
 Charge = -1 Multiplicity = 1
 C                     14.796    8.098     8.095 
 C                     15.688    7.148     8.906 
 C                     14.91     6.244     9.882 
 C                     13.967    5.211     9.214 
 C                     14.736    4.264     8.252 
 C                     14.075    2.887     8.118 
 N                     14.761    2.079     7.112 
 C                     14.153    0.992     6.464 
 C                     14.892    0.315     5.472 
 C                     14.336   -0.784     4.788 
 C                     13.032   -1.217     5.092 
 C                     12.287   -0.549     6.082 
 C                     12.843    0.55      6.765 
 C                     13.998    2.294     9.521 
 C                     14.394    0.969     9.815 
 C                     14.372    0.469     11.136 
 C                     13.962    1.339     12.17 
 C                     13.571    2.662     11.893 
 C                     13.558    3.142     10.563 
 N                     13.172    4.487     10.243 
 C                     12.012    5.054     10.691 
 C                     10.978    4.215     11.447 
 O                     11.721    6.237     10.48 
 C                     14.783   -0.919     11.43 
 C                     15.865   -1.519     10.747 
 C                     16.258   -2.843     11.028 
 C                     15.576   -3.605     12.002 
 C                     14.493   -3.011     12.687 
 C                     14.104   -1.686     12.403 
 C                     15.995   -5.019     12.304 
 O                     15.384   -5.683     13.167 
 H                     13.259    5.747     8.578 
 H                     13.053    3.055     7.774 
 H                     15.401    8.773     7.489 
 H                     14.139    7.554     7.416 
 H                     14.172    8.71      8.748 
 H                     16.394    7.748     9.482 
 H                     16.298    6.548     8.231 
 H                     14.344    6.881     10.563 
 H                     15.624    5.711     10.511 
 H                     14.83     4.741     7.275 
 H                     15.754    4.122     8.62 
 H                     15.704    2.35      6.851 
 H                     15.896    0.63      5.224 
 H                     14.912   -1.295     4.029 
 H                     12.604   -2.062     4.568 
 H                     11.286   -0.881     6.32 
 H                     12.245    1.031     7.525 
 H                     14.724    0.32      9.018 
 H                     13.961    0.998     13.195 
 H                     13.295    3.304     12.717 
 H                     9.988     4.661     11.348 
 H                     10.914    3.201     11.055 
 H                     11.214    4.175     12.509 
 H                     16.412   -0.959     10.002 
 H                     17.092   -3.274     10.491 
 H                     13.953   -3.574     13.436 
 H                     13.265   -1.263     12.939 
 O                     16.954   -5.533     11.694 
 

 GradGradGradGradGradGradGradGradGradGradGradGradGradGradGradGradGradGrad
 Berny optimization.
 Initialization pass.
                           ----------------------------
                           !    Initial Parameters    !
                           ! (Angstroms and Degrees)  !
 --------------------------                            --------------------------
 ! Name  Definition              Value          Derivative Info.                !
 --------------------------------------------------------------------------------
 ! R1    R(1,2)                  1.5349         estimate D2E/DX2                !
 ! R2    R(1,34)                 1.0904         estimate D2E/DX2                !
 ! R3    R(1,35)                 1.0902         estimate D2E/DX2                !
 ! R4    R(1,36)                 1.091          estimate D2E/DX2                !
 ! R5    R(2,3)                  1.5411         estimate D2E/DX2                !
 ! R6    R(2,37)                 1.091          estimate D2E/DX2                !
 ! R7    R(2,38)                 1.0898         estimate D2E/DX2                !
 ! R8    R(3,4)                  1.55           estimate D2E/DX2                !
 ! R9    R(3,39)                 1.0908         estimate D2E/DX2                !
 ! R10   R(3,40)                 1.0907         estimate D2E/DX2                !
 ! R11   R(4,5)                  1.5536         estimate D2E/DX2                !
 ! R12   R(4,20)                 1.4883         estimate D2E/DX2                !
 ! R13   R(4,32)                 1.0923         estimate D2E/DX2                !
 ! R14   R(5,6)                  1.5333         estimate D2E/DX2                !
 ! R15   R(5,41)                 1.0913         estimate D2E/DX2                !
 ! R16   R(5,42)                 1.0917         estimate D2E/DX2                !
 ! R17   R(6,7)                  1.4613         estimate D2E/DX2                !
 ! R18   R(6,14)                 1.5251         estimate D2E/DX2                !
 ! R19   R(6,33)                 1.0913         estimate D2E/DX2                !
 ! R20   R(7,8)                  1.404          estimate D2E/DX2                !
 ! R21   R(7,43)                 1.0153         estimate D2E/DX2                !
 ! R22   R(8,9)                  1.4101         estimate D2E/DX2                !
 ! R23   R(8,13)                 1.4149         estimate D2E/DX2                !
 ! R24   R(9,10)                 1.4088         estimate D2E/DX2                !
 ! R25   R(9,44)                 1.0811         estimate D2E/DX2                !
 ! R26   R(10,11)                1.4072         estimate D2E/DX2                !
 ! R27   R(10,45)                1.0812         estimate D2E/DX2                !
 ! R28   R(11,12)                1.4076         estimate D2E/DX2                !
 ! R29   R(11,46)                1.0825         estimate D2E/DX2                !
 ! R30   R(12,13)                1.4083         estimate D2E/DX2                !
 ! R31   R(12,47)                1.0811         estimate D2E/DX2                !
 ! R32   R(13,48)                1.0801         estimate D2E/DX2                !
 ! R33   R(14,15)                1.4138         estimate D2E/DX2                !
 ! R34   R(14,19)                1.4137         estimate D2E/DX2                !
 ! R35   R(15,16)                1.4126         estimate D2E/DX2                !
 ! R36   R(15,49)                1.0795         estimate D2E/DX2                !
 ! R37   R(16,17)                1.4121         estimate D2E/DX2                !
 ! R38   R(16,24)                1.4771         estimate D2E/DX2                !
 ! R39   R(17,18)                1.4071         estimate D2E/DX2                !
 ! R40   R(17,50)                1.0802         estimate D2E/DX2                !
 ! R41   R(18,19)                1.414          estimate D2E/DX2                !
 ! R42   R(18,51)                1.0804         estimate D2E/DX2                !
 ! R43   R(19,20)                1.4354         estimate D2E/DX2                !
 ! R44   R(20,21)                1.3667         estimate D2E/DX2                !
 ! R45   R(21,22)                1.5312         estimate D2E/DX2                !
 ! R46   R(21,23)                1.2364         estimate D2E/DX2                !
 ! R47   R(22,52)                1.0903         estimate D2E/DX2                !
 ! R48   R(22,53)                1.089          estimate D2E/DX2                !
 ! R49   R(22,54)                1.0886         estimate D2E/DX2                !
 ! R50   R(24,25)                1.4132         estimate D2E/DX2                !
 ! R51   R(24,29)                1.4128         estimate D2E/DX2                !
 ! R52   R(25,26)                1.4094         estimate D2E/DX2                !
 ! R53   R(25,55)                1.0807         estimate D2E/DX2                !
 ! R54   R(26,27)                1.4122         estimate D2E/DX2                !
 ! R55   R(26,56)                1.0815         estimate D2E/DX2                !
 ! R56   R(27,28)                1.4124         estimate D2E/DX2                !
 ! R57   R(27,30)                1.5054         estimate D2E/DX2                !
 ! R58   R(28,29)                1.4098         estimate D2E/DX2                !
 ! R59   R(28,57)                1.0815         estimate D2E/DX2                !
 ! R60   R(29,58)                1.0817         estimate D2E/DX2                !
 ! R61   R(30,31)                1.2486         estimate D2E/DX2                !
 ! R62   R(30,59)                1.2474         estimate D2E/DX2                !
 ! A1    A(2,1,34)             110.7544         estimate D2E/DX2                !
 ! A2    A(2,1,35)             111.7435         estimate D2E/DX2                !
 ! A3    A(2,1,36)             111.3046         estimate D2E/DX2                !
 ! A4    A(34,1,35)            107.2851         estimate D2E/DX2                !
 ! A5    A(34,1,36)            107.6221         estimate D2E/DX2                !
 ! A6    A(35,1,36)            107.9381         estimate D2E/DX2                !
 ! A7    A(1,2,3)              113.8474         estimate D2E/DX2                !
 ! A8    A(1,2,37)             108.3397         estimate D2E/DX2                !
 ! A9    A(1,2,38)             109.8024         estimate D2E/DX2                !
 ! A10   A(3,2,37)             108.3563         estimate D2E/DX2                !
 ! A11   A(3,2,38)             110.6014         estimate D2E/DX2                !
 ! A12   A(37,2,38)            105.5201         estimate D2E/DX2                !
 ! A13   A(2,3,4)              115.1583         estimate D2E/DX2                !
 ! A14   A(2,3,39)             108.3469         estimate D2E/DX2                !
 ! A15   A(2,3,40)             108.7484         estimate D2E/DX2                !
 ! A16   A(4,3,39)             110.0327         estimate D2E/DX2                !
 ! A17   A(4,3,40)             108.7314         estimate D2E/DX2                !
 ! A18   A(39,3,40)            105.3681         estimate D2E/DX2                !
 ! A19   A(3,4,5)              111.8363         estimate D2E/DX2                !
 ! A20   A(3,4,20)             110.5613         estimate D2E/DX2                !
 ! A21   A(3,4,32)             108.5569         estimate D2E/DX2                !
 ! A22   A(5,4,20)             113.3282         estimate D2E/DX2                !
 ! A23   A(5,4,32)             105.0354         estimate D2E/DX2                !
 ! A24   A(20,4,32)            107.1608         estimate D2E/DX2                !
 ! A25   A(4,5,6)              112.8395         estimate D2E/DX2                !
 ! A26   A(4,5,41)             109.3032         estimate D2E/DX2                !
 ! A27   A(4,5,42)             109.397          estimate D2E/DX2                !
 ! A28   A(6,5,41)             110.5752         estimate D2E/DX2                !
 ! A29   A(6,5,42)             108.3382         estimate D2E/DX2                !
 ! A30   A(41,5,42)            106.1593         estimate D2E/DX2                !
 ! A31   A(5,6,7)              110.7535         estimate D2E/DX2                !
 ! A32   A(5,6,14)             106.8913         estimate D2E/DX2                !
 ! A33   A(5,6,33)             107.0379         estimate D2E/DX2                !
 ! A34   A(7,6,14)             116.2318         estimate D2E/DX2                !
 ! A35   A(7,6,33)             107.9223         estimate D2E/DX2                !
 ! A36   A(14,6,33)            107.6103         estimate D2E/DX2                !
 ! A37   A(6,7,8)              122.8561         estimate D2E/DX2                !
 ! A38   A(6,7,43)             117.7358         estimate D2E/DX2                !
 ! A39   A(8,7,43)             119.3558         estimate D2E/DX2                !
 ! A40   A(7,8,9)              117.998          estimate D2E/DX2                !
 ! A41   A(7,8,13)             122.9979         estimate D2E/DX2                !
 ! A42   A(9,8,13)             119.0039         estimate D2E/DX2                !
 ! A43   A(8,9,10)             120.6127         estimate D2E/DX2                !
 ! A44   A(8,9,44)             120.5428         estimate D2E/DX2                !
 ! A45   A(10,9,44)            118.8445         estimate D2E/DX2                !
 ! A46   A(9,10,11)            120.056          estimate D2E/DX2                !
 ! A47   A(9,10,45)            119.9515         estimate D2E/DX2                !
 ! A48   A(11,10,45)           119.9926         estimate D2E/DX2                !
 ! A49   A(10,11,12)           119.7591         estimate D2E/DX2                !
 ! A50   A(10,11,46)           120.1321         estimate D2E/DX2                !
 ! A51   A(12,11,46)           120.1087         estimate D2E/DX2                !
 ! A52   A(11,12,13)           120.1633         estimate D2E/DX2                !
 ! A53   A(11,12,47)           119.9426         estimate D2E/DX2                !
 ! A54   A(13,12,47)           119.8941         estimate D2E/DX2                !
 ! A55   A(8,13,12)            120.405          estimate D2E/DX2                !
 ! A56   A(8,13,48)            121.5454         estimate D2E/DX2                !
 ! A57   A(12,13,48)           118.0465         estimate D2E/DX2                !
 ! A58   A(6,14,15)            122.7894         estimate D2E/DX2                !
 ! A59   A(6,14,19)            117.4223         estimate D2E/DX2                !
 ! A60   A(15,14,19)           119.7407         estimate D2E/DX2                !
 ! A61   A(14,15,16)           121.4538         estimate D2E/DX2                !
 ! A62   A(14,15,49)           119.7049         estimate D2E/DX2                !
 ! A63   A(16,15,49)           118.8411         estimate D2E/DX2                !
 ! A64   A(15,16,17)           118.1111         estimate D2E/DX2                !
 ! A65   A(15,16,24)           120.9563         estimate D2E/DX2                !
 ! A66   A(17,16,24)           120.9278         estimate D2E/DX2                !
 ! A67   A(16,17,18)           121.0506         estimate D2E/DX2                !
 ! A68   A(16,17,50)           120.0375         estimate D2E/DX2                !
 ! A69   A(18,17,50)           118.9037         estimate D2E/DX2                !
 ! A70   A(17,18,19)           120.4564         estimate D2E/DX2                !
 ! A71   A(17,18,51)           118.6556         estimate D2E/DX2                !
 ! A72   A(19,18,51)           120.883          estimate D2E/DX2                !
 ! A73   A(14,19,18)           119.1305         estimate D2E/DX2                !
 ! A74   A(14,19,20)           118.7801         estimate D2E/DX2                !
 ! A75   A(18,19,20)           122.021          estimate D2E/DX2                !
 ! A76   A(4,20,19)            117.7949         estimate D2E/DX2                !
 ! A77   A(4,20,21)            118.5684         estimate D2E/DX2                !
 ! A78   A(19,20,21)           122.9503         estimate D2E/DX2                !
 ! A79   A(20,21,22)           120.5097         estimate D2E/DX2                !
 ! A80   A(20,21,23)           122.737          estimate D2E/DX2                !
 ! A81   A(22,21,23)           116.7173         estimate D2E/DX2                !
 ! A82   A(21,22,52)           110.1319         estimate D2E/DX2                !
 ! A83   A(21,22,53)           111.8484         estimate D2E/DX2                !
 ! A84   A(21,22,54)           110.8171         estimate D2E/DX2                !
 ! A85   A(52,22,53)           107.1473         estimate D2E/DX2                !
 ! A86   A(52,22,54)           107.4842         estimate D2E/DX2                !
 ! A87   A(53,22,54)           109.2492         estimate D2E/DX2                !
 ! A88   A(16,24,25)           121.0496         estimate D2E/DX2                !
 ! A89   A(16,24,29)           120.896          estimate D2E/DX2                !
 ! A90   A(25,24,29)           118.0544         estimate D2E/DX2                !
 ! A91   A(24,25,26)           121.0622         estimate D2E/DX2                !
 ! A92   A(24,25,55)           120.0467         estimate D2E/DX2                !
 ! A93   A(26,25,55)           118.8887         estimate D2E/DX2                !
 ! A94   A(25,26,27)           120.6453         estimate D2E/DX2                !
 ! A95   A(25,26,56)           119.3668         estimate D2E/DX2                !
 ! A96   A(27,26,56)           119.9877         estimate D2E/DX2                !
 ! A97   A(26,27,28)           118.5451         estimate D2E/DX2                !
 ! A98   A(26,27,30)           120.7145         estimate D2E/DX2                !
 ! A99   A(28,27,30)           120.7404         estimate D2E/DX2                !
 ! A100  A(27,28,29)           120.6052         estimate D2E/DX2                !
 ! A101  A(27,28,57)           119.9877         estimate D2E/DX2                !
 ! A102  A(29,28,57)           119.407          estimate D2E/DX2                !
 ! A103  A(24,29,28)           121.0876         estimate D2E/DX2                !
 ! A104  A(24,29,58)           120.1135         estimate D2E/DX2                !
 ! A105  A(28,29,58)           118.7967         estimate D2E/DX2                !
 ! A106  A(27,30,31)           120.1307         estimate D2E/DX2                !
 ! A107  A(27,30,59)           120.194          estimate D2E/DX2                !
 ! A108  A(31,30,59)           119.6753         estimate D2E/DX2                !
 ! D1    D(34,1,2,3)           174.9443         estimate D2E/DX2                !
 ! D2    D(34,1,2,37)           54.3285         estimate D2E/DX2                !
 ! D3    D(34,1,2,38)          -60.4411         estimate D2E/DX2                !
 ! D4    D(35,1,2,3)           -65.5032         estimate D2E/DX2                !
 ! D5    D(35,1,2,37)          173.8811         estimate D2E/DX2                !
 ! D6    D(35,1,2,38)           59.1114         estimate D2E/DX2                !
 ! D7    D(36,1,2,3)            55.2564         estimate D2E/DX2                !
 ! D8    D(36,1,2,37)          -65.3594         estimate D2E/DX2                !
 ! D9    D(36,1,2,38)          179.871          estimate D2E/DX2                !
 ! D10   D(1,2,3,4)             65.7013         estimate D2E/DX2                !
 ! D11   D(1,2,3,39)           -57.9738         estimate D2E/DX2                !
 ! D12   D(1,2,3,40)          -172.0167         estimate D2E/DX2                !
 ! D13   D(37,2,3,4)          -173.6923         estimate D2E/DX2                !
 ! D14   D(37,2,3,39)           62.6327         estimate D2E/DX2                !
 ! D15   D(37,2,3,40)          -51.4102         estimate D2E/DX2                !
 ! D16   D(38,2,3,4)           -58.4839         estimate D2E/DX2                !
 ! D17   D(38,2,3,39)          177.841          estimate D2E/DX2                !
 ! D18   D(38,2,3,40)           63.7981         estimate D2E/DX2                !
 ! D19   D(2,3,4,5)             58.2117         estimate D2E/DX2                !
 ! D20   D(2,3,4,20)          -174.4919         estimate D2E/DX2                !
 ! D21   D(2,3,4,32)           -57.2122         estimate D2E/DX2                !
 ! D22   D(39,3,4,5)          -179.009          estimate D2E/DX2                !
 ! D23   D(39,3,4,20)          -51.7126         estimate D2E/DX2                !
 ! D24   D(39,3,4,32)           65.5671         estimate D2E/DX2                !
 ! D25   D(40,3,4,5)           -64.0795         estimate D2E/DX2                !
 ! D26   D(40,3,4,20)           63.2169         estimate D2E/DX2                !
 ! D27   D(40,3,4,32)         -179.5034         estimate D2E/DX2                !
 ! D28   D(3,4,5,6)            151.8193         estimate D2E/DX2                !
 ! D29   D(3,4,5,41)           -84.7059         estimate D2E/DX2                !
 ! D30   D(3,4,5,42)            31.1402         estimate D2E/DX2                !
 ! D31   D(20,4,5,6)            26.0272         estimate D2E/DX2                !
 ! D32   D(20,4,5,41)          149.502          estimate D2E/DX2                !
 ! D33   D(20,4,5,42)          -94.6519         estimate D2E/DX2                !
 ! D34   D(32,4,5,6)           -90.6235         estimate D2E/DX2                !
 ! D35   D(32,4,5,41)           32.8512         estimate D2E/DX2                !
 ! D36   D(32,4,5,42)          148.6973         estimate D2E/DX2                !
 ! D37   D(3,4,20,19)         -104.0456         estimate D2E/DX2                !
 ! D38   D(3,4,20,21)           85.1632         estimate D2E/DX2                !
 ! D39   D(5,4,20,19)           22.4238         estimate D2E/DX2                !
 ! D40   D(5,4,20,21)         -148.3674         estimate D2E/DX2                !
 ! D41   D(32,4,20,19)         137.8182         estimate D2E/DX2                !
 ! D42   D(32,4,20,21)         -32.973          estimate D2E/DX2                !
 ! D43   D(4,5,6,7)            174.7162         estimate D2E/DX2                !
 ! D44   D(4,5,6,14)           -57.7628         estimate D2E/DX2                !
 ! D45   D(4,5,6,33)            57.309          estimate D2E/DX2                !
 ! D46   D(41,5,6,7)            51.9488         estimate D2E/DX2                !
 ! D47   D(41,5,6,14)          179.4698         estimate D2E/DX2                !
 ! D48   D(41,5,6,33)          -65.4584         estimate D2E/DX2                !
 ! D49   D(42,5,6,7)           -64.002          estimate D2E/DX2                !
 ! D50   D(42,5,6,14)           63.519          estimate D2E/DX2                !
 ! D51   D(42,5,6,33)          178.5907         estimate D2E/DX2                !
 ! D52   D(5,6,7,8)           -158.3454         estimate D2E/DX2                !
 ! D53   D(5,6,7,43)            19.0043         estimate D2E/DX2                !
 ! D54   D(14,6,7,8)            79.4386         estimate D2E/DX2                !
 ! D55   D(14,6,7,43)         -103.2117         estimate D2E/DX2                !
 ! D56   D(33,6,7,8)           -41.4816         estimate D2E/DX2                !
 ! D57   D(33,6,7,43)          135.8681         estimate D2E/DX2                !
 ! D58   D(5,6,14,15)         -132.6868         estimate D2E/DX2                !
 ! D59   D(5,6,14,19)           44.791          estimate D2E/DX2                !
 ! D60   D(7,6,14,15)           -8.4601         estimate D2E/DX2                !
 ! D61   D(7,6,14,19)          169.0177         estimate D2E/DX2                !
 ! D62   D(33,6,14,15)         112.6265         estimate D2E/DX2                !
 ! D63   D(33,6,14,19)         -69.8958         estimate D2E/DX2                !
 ! D64   D(6,7,8,9)            177.574          estimate D2E/DX2                !
 ! D65   D(6,7,8,13)            -2.5931         estimate D2E/DX2                !
 ! D66   D(43,7,8,9)             0.2654         estimate D2E/DX2                !
 ! D67   D(43,7,8,13)         -179.9017         estimate D2E/DX2                !
 ! D68   D(7,8,9,10)           179.9322         estimate D2E/DX2                !
 ! D69   D(7,8,9,44)             0.0013         estimate D2E/DX2                !
 ! D70   D(13,8,9,10)            0.0924         estimate D2E/DX2                !
 ! D71   D(13,8,9,44)         -179.8385         estimate D2E/DX2                !
 ! D72   D(7,8,13,12)         -179.8908         estimate D2E/DX2                !
 ! D73   D(7,8,13,48)           -0.5494         estimate D2E/DX2                !
 ! D74   D(9,8,13,12)           -0.0595         estimate D2E/DX2                !
 ! D75   D(9,8,13,48)          179.2819         estimate D2E/DX2                !
 ! D76   D(8,9,10,11)           -0.0338         estimate D2E/DX2                !
 ! D77   D(8,9,10,45)          179.9731         estimate D2E/DX2                !
 ! D78   D(44,9,10,11)         179.8983         estimate D2E/DX2                !
 ! D79   D(44,9,10,45)          -0.0948         estimate D2E/DX2                !
 ! D80   D(9,10,11,12)          -0.0588         estimate D2E/DX2                !
 ! D81   D(9,10,11,46)        -179.9299         estimate D2E/DX2                !
 ! D82   D(45,10,11,12)        179.9343         estimate D2E/DX2                !
 ! D83   D(45,10,11,46)          0.0632         estimate D2E/DX2                !
 ! D84   D(10,11,12,13)          0.0916         estimate D2E/DX2                !
 ! D85   D(10,11,12,47)       -179.8178         estimate D2E/DX2                !
 ! D86   D(46,11,12,13)        179.9627         estimate D2E/DX2                !
 ! D87   D(46,11,12,47)          0.0533         estimate D2E/DX2                !
 ! D88   D(11,12,13,8)          -0.0322         estimate D2E/DX2                !
 ! D89   D(11,12,13,48)       -179.3962         estimate D2E/DX2                !
 ! D90   D(47,12,13,8)         179.8772         estimate D2E/DX2                !
 ! D91   D(47,12,13,48)          0.5132         estimate D2E/DX2                !
 ! D92   D(6,14,15,16)         176.8822         estimate D2E/DX2                !
 ! D93   D(6,14,15,49)          -2.9615         estimate D2E/DX2                !
 ! D94   D(19,14,15,16)         -0.5393         estimate D2E/DX2                !
 ! D95   D(19,14,15,49)        179.617          estimate D2E/DX2                !
 ! D96   D(6,14,19,18)        -175.157          estimate D2E/DX2                !
 ! D97   D(6,14,19,20)           1.8984         estimate D2E/DX2                !
 ! D98   D(15,14,19,18)          2.401          estimate D2E/DX2                !
 ! D99   D(15,14,19,20)        179.4564         estimate D2E/DX2                !
 ! D100  D(14,15,16,17)         -1.0327         estimate D2E/DX2                !
 ! D101  D(14,15,16,24)        179.7527         estimate D2E/DX2                !
 ! D102  D(49,15,16,17)        178.8123         estimate D2E/DX2                !
 ! D103  D(49,15,16,24)         -0.4023         estimate D2E/DX2                !
 ! D104  D(15,16,17,18)          0.7332         estimate D2E/DX2                !
 ! D105  D(15,16,17,50)       -178.2188         estimate D2E/DX2                !
 ! D106  D(24,16,17,18)        179.948          estimate D2E/DX2                !
 ! D107  D(24,16,17,50)          0.996          estimate D2E/DX2                !
 ! D108  D(15,16,24,25)         38.0051         estimate D2E/DX2                !
 ! D109  D(15,16,24,29)       -141.9568         estimate D2E/DX2                !
 ! D110  D(17,16,24,25)       -141.1872         estimate D2E/DX2                !
 ! D111  D(17,16,24,29)         38.8508         estimate D2E/DX2                !
 ! D112  D(16,17,18,19)          1.1418         estimate D2E/DX2                !
 ! D113  D(16,17,18,51)       -178.0452         estimate D2E/DX2                !
 ! D114  D(50,17,18,19)       -179.8945         estimate D2E/DX2                !
 ! D115  D(50,17,18,51)          0.9185         estimate D2E/DX2                !
 ! D116  D(17,18,19,14)         -2.7102         estimate D2E/DX2                !
 ! D117  D(17,18,19,20)       -179.6661         estimate D2E/DX2                !
 ! D118  D(51,18,19,14)        176.4585         estimate D2E/DX2                !
 ! D119  D(51,18,19,20)         -0.4974         estimate D2E/DX2                !
 ! D120  D(14,19,20,4)         -38.2886         estimate D2E/DX2                !
 ! D121  D(14,19,20,21)        132.0695         estimate D2E/DX2                !
 ! D122  D(18,19,20,4)         138.6777         estimate D2E/DX2                !
 ! D123  D(18,19,20,21)        -50.9643         estimate D2E/DX2                !
 ! D124  D(4,20,21,22)         163.5938         estimate D2E/DX2                !
 ! D125  D(4,20,21,23)         -14.1525         estimate D2E/DX2                !
 ! D126  D(19,20,21,22)         -6.6936         estimate D2E/DX2                !
 ! D127  D(19,20,21,23)        175.5601         estimate D2E/DX2                !
 ! D128  D(20,21,22,52)       -155.4672         estimate D2E/DX2                !
 ! D129  D(20,21,22,53)        -36.4354         estimate D2E/DX2                !
 ! D130  D(20,21,22,54)         85.7352         estimate D2E/DX2                !
 ! D131  D(23,21,22,52)         22.4105         estimate D2E/DX2                !
 ! D132  D(23,21,22,53)        141.4424         estimate D2E/DX2                !
 ! D133  D(23,21,22,54)        -96.3871         estimate D2E/DX2                !
 ! D134  D(16,24,25,26)        179.9531         estimate D2E/DX2                !
 ! D135  D(16,24,25,55)          0.5224         estimate D2E/DX2                !
 ! D136  D(29,24,25,26)         -0.0839         estimate D2E/DX2                !
 ! D137  D(29,24,25,55)       -179.5146         estimate D2E/DX2                !
 ! D138  D(16,24,29,28)       -179.9883         estimate D2E/DX2                !
 ! D139  D(16,24,29,58)          0.5531         estimate D2E/DX2                !
 ! D140  D(25,24,29,28)          0.0487         estimate D2E/DX2                !
 ! D141  D(25,24,29,58)       -179.41           estimate D2E/DX2                !
 ! D142  D(24,25,26,27)          0.0629         estimate D2E/DX2                !
 ! D143  D(24,25,26,56)       -179.8077         estimate D2E/DX2                !
 ! D144  D(55,25,26,27)        179.5001         estimate D2E/DX2                !
 ! D145  D(55,25,26,56)         -0.3705         estimate D2E/DX2                !
 ! D146  D(25,26,27,28)         -0.0043         estimate D2E/DX2                !
 ! D147  D(25,26,27,30)       -179.9608         estimate D2E/DX2                !
 ! D148  D(56,26,27,28)        179.8655         estimate D2E/DX2                !
 ! D149  D(56,26,27,30)         -0.091          estimate D2E/DX2                !
 ! D150  D(26,27,28,29)         -0.0307         estimate D2E/DX2                !
 ! D151  D(26,27,28,57)        179.874          estimate D2E/DX2                !
 ! D152  D(30,27,28,29)        179.9258         estimate D2E/DX2                !
 ! D153  D(30,27,28,57)         -0.1694         estimate D2E/DX2                !
 ! D154  D(26,27,30,31)       -179.9751         estimate D2E/DX2                !
 ! D155  D(26,27,30,59)          0.0418         estimate D2E/DX2                !
 ! D156  D(28,27,30,31)          0.0693         estimate D2E/DX2                !
 ! D157  D(28,27,30,59)       -179.9138         estimate D2E/DX2                !
 ! D158  D(27,28,29,24)          0.0082         estimate D2E/DX2                !
 ! D159  D(27,28,29,58)        179.4738         estimate D2E/DX2                !
 ! D160  D(57,28,29,24)       -179.8972         estimate D2E/DX2                !
 ! D161  D(57,28,29,58)         -0.4315         estimate D2E/DX2                !
 --------------------------------------------------------------------------------
 Trust Radius=3.00D-01 FncErr=1.00D-07 GrdErr=1.00D-07
 Number of steps in this run= 341 maximum allowed number of steps= 354.
 GradGradGradGradGradGradGradGradGradGradGradGradGradGradGradGradGradGrad

 Stoichiometry    C27H27N2O3(1-)
 Framework group  C1[X(C27H27N2O3)]
 Deg. of freedom   171
 Full point group                 C1
 Largest Abelian subgroup         C1      NOp   1
 Largest concise Abelian subgroup C1      NOp   1
                         Standard orientation:                         
 ---------------------------------------------------------------------
 Center     Atomic     Atomic              Coordinates (Angstroms)
 Number     Number      Type              X           Y           Z
 ---------------------------------------------------------------------
    1          6             0        6.790489   -0.097734   -1.754076
    2          6             0        5.536411   -0.640364   -2.453166
    3          6             0        4.572579   -1.388374   -1.511580
    4          6             0        3.905555   -0.512782   -0.420260
    5          6             0        3.098046    0.662827   -1.036286
    6          6             0        1.926633    1.107742   -0.152631
    7          7             0        1.276691    2.291227   -0.711590
    8          6             0        0.495984    3.167139    0.059392
    9          6             0       -0.041124    4.306879   -0.573871
   10          6             0       -0.833614    5.221672    0.147176
   11          6             0       -1.097019    5.003046    1.512145
   12          6             0       -0.567011    3.867271    2.152814
   13          6             0        0.225717    2.953450    1.431746
   14          6             0        1.038437   -0.114659    0.054323
   15          6             0       -0.366065   -0.076053   -0.103040
   16          6             0       -1.155212   -1.239887    0.032101
   17          6             0       -0.499875   -2.459689    0.309181
   18          6             0        0.897806   -2.514221    0.462320
   19          6             0        1.675965   -1.337597    0.364884
   20          7             0        3.104074   -1.355522    0.508427
   21          6             0        3.737707   -1.949465    1.563668
   22          6             0        2.932241   -2.504613    2.741653
   23          8             0        4.968713   -2.032648    1.643632
   24          6             0       -2.622506   -1.185952   -0.129269
   25          6             0       -3.218325   -0.357567   -1.107016
   26          6             0       -4.618258   -0.306639   -1.261870
   27          6             0       -5.462281   -1.084602   -0.439165
   28          6             0       -4.872503   -1.913519    0.540636
   29          6             0       -3.471583   -1.961690    0.691315
   30          6             0       -6.957706   -1.032070   -0.603801
   31          8             0       -7.693722   -1.724173    0.129861
   32          1             0        4.690666   -0.037578    0.172056
   33          1             0        2.344029    1.380751    0.818086
   34          1             0        7.476781    0.342091   -2.478260
   35          1             0        6.544656    0.677793   -1.028301
   36          1             0        7.326604   -0.890471   -1.230170
   37          1             0        5.851954   -1.328234   -3.238964
   38          1             0        5.019406    0.170586   -2.965798
   39          1             0        5.116000   -2.213071   -1.048488
   40          1             0        3.790979   -1.857374   -2.110468
   41          1             0        3.770886    1.499617   -1.231127
   42          1             0        2.700469    0.360234   -2.006998
   43          1             0        1.436713    2.499337   -1.692352
   44          1             0        0.147430    4.493125   -1.621967
   45          1             0       -1.239696    6.092261   -0.348958
   46          1             0       -1.706719    5.704543    2.067079
   47          1             0       -0.769946    3.694850    3.200648
   48          1             0        0.606643    2.088592    1.954701
   49          1             0       -0.852944    0.859299   -0.334067
   50          1             0       -1.070047   -3.373609    0.390182
   51          1             0        1.362322   -3.473014    0.641924
   52          1             0        3.551525   -2.535118    3.638522
   53          1             0        2.067259   -1.883525    2.969713
   54          1             0        2.600470   -3.521377    2.538530
   55          1             0       -2.598917    0.243453   -1.757356
   56          1             0       -5.044907    0.334611   -2.021117
   57          1             0       -5.496930   -2.517563    1.184678
   58          1             0       -3.051489   -2.600164    1.456834
   59          8             0       -7.467677   -0.297590   -1.473540
 ---------------------------------------------------------------------
 Rotational constants (GHZ):      0.1812343      0.0706403      0.0582208
 Standard basis: 6-31G(d) (6D, 7F)
 There are   534 symmetry adapted basis functions of A   symmetry.
 Integral buffers will be    131072 words long.
 Raffenetti 1 integral format.
 Two-electron integral symmetry is turned on.
   534 basis functions,  1004 primitive gaussians,   534 cartesian basis functions
   114 alpha electrons      114 beta electrons
       nuclear repulsion energy      3013.1074663134 Hartrees.
 NAtoms=   59 NActive=   59 NUniq=   59 SFac= 7.50D-01 NAtFMM=   80 NAOKFM=F Big=F
 One-electron integrals computed using PRISM.
 NBasis=   534 RedAO= T  NBF=   534
 NBsUse=   534 1.00D-06 NBFU=   534
 Harris functional with IExCor=  205 diagonalized for initial guess.
 ExpMin= 1.61D-01 ExpMax= 5.48D+03 ExpMxC= 8.25D+02 IAcc=1 IRadAn=         1 AccDes= 1.00D-06
 HarFok:  IExCor= 205 AccDes= 1.00D-06 IRadAn=         1 IDoV=1
 ScaDFX=  1.000000  1.000000  1.000000  1.000000
 Initial guess orbital symmetries:
       Occupied  (A) (A) (A) (A) (A) (A) (A) (A) (A) (A) (A) (A)
                 (A) (A) (A) (A) (A) (A) (A) (A) (A) (A) (A) (A)
                 (A) (A) (A) (A) (A) (A) (A) (A) (A) (A) (A) (A)
                 (A) (A) (A) (A) (A) (A) (A) (A) (A) (A) (A) (A)
                 (A) (A) (A) (A) (A) (A) (A) (A) (A) (A) (A) (A)
                 (A) (A) (A) (A) (A) (A) (A) (A) (A) (A) (A) (A)
                 (A) (A) (A) (A) (A) (A) (A) (A) (A) (A) (A) (A)
                 (A) (A) (A) (A) (A) (A) (A) (A) (A) (A) (A) (A)
                 (A) (A) (A) (A) (A) (A) (A) (A) (A) (A) (A) (A)
                 (A) (A) (A) (A) (A) (A)
       Virtual   (A) (A) (A) (A) (A) (A) (A) (A) (A) (A) (A) (A)
                 (A) (A) (A) (A) (A) (A) (A) (A) (A) (A) (A) (A)
                 (A) (A) (A) (A) (A) (A) (A) (A) (A) (A) (A) (A)
                 (A) (A) (A) (A) (A) (A) (A) (A) (A) (A) (A) (A)
                 (A) (A) (A) (A) (A) (A) (A) (A) (A) (A) (A) (A)
                 (A) (A) (A) (A) (A) (A) (A) (A) (A) (A) (A) (A)
                 (A) (A) (A) (A) (A) (A) (A) (A) (A) (A) (A) (A)
                 (A) (A) (A) (A) (A) (A) (A) (A) (A) (A) (A) (A)
                 (A) (A) (A) (A) (A) (A) (A) (A) (A) (A) (A) (A)
                 (A) (A) (A) (A) (A) (A) (A) (A) (A) (A) (A) (A)
                 (A) (A) (A) (A) (A) (A) (A) (A) (A) (A) (A) (A)
                 (A) (A) (A) (A) (A) (A) (A) (A) (A) (A) (A) (A)
                 (A) (A) (A) (A) (A) (A) (A) (A) (A) (A) (A) (A)
                 (A) (A) (A) (A) (A) (A) (A) (A) (A) (A) (A) (A)
                 (A) (A) (A) (A) (A) (A) (A) (A) (A) (A) (A) (A)
                 (A) (A) (A) (A) (A) (A) (A) (A) (A) (A) (A) (A)
                 (A) (A) (A) (A) (A) (A) (A) (A) (A) (A) (A) (A)
                 (A) (A) (A) (A) (A) (A) (A) (A) (A) (A) (A) (A)
                 (A) (A) (A) (A) (A) (A) (A) (A) (A) (A) (A) (A)
                 (A) (A) (A) (A) (A) (A) (A) (A) (A) (A) (A) (A)
                 (A) (A) (A) (A) (A) (A) (A) (A) (A) (A) (A) (A)
                 (A) (A) (A) (A) (A) (A) (A) (A) (A) (A) (A) (A)
                 (A) (A) (A) (A) (A) (A) (A) (A) (A) (A) (A) (A)
                 (A) (A) (A) (A) (A) (A) (A) (A) (A) (A) (A) (A)
                 (A) (A) (A) (A) (A) (A) (A) (A) (A) (A) (A) (A)
                 (A) (A) (A) (A) (A) (A) (A) (A) (A) (A) (A) (A)
                 (A) (A) (A) (A) (A) (A) (A) (A) (A) (A) (A) (A)
                 (A) (A) (A) (A) (A) (A) (A) (A) (A) (A) (A) (A)
                 (A) (A) (A) (A) (A) (A) (A) (A) (A) (A) (A) (A)
                 (A) (A) (A) (A) (A) (A) (A) (A) (A) (A) (A) (A)
                 (A) (A) (A) (A) (A) (A) (A) (A) (A) (A) (A) (A)
                 (A) (A) (A) (A) (A) (A) (A) (A) (A) (A) (A) (A)
                 (A) (A) (A) (A) (A) (A) (A) (A) (A) (A) (A) (A)
                 (A) (A) (A) (A) (A) (A) (A) (A) (A) (A) (A) (A)
                 (A) (A) (A) (A) (A) (A) (A) (A) (A) (A) (A) (A)
 The electronic state of the initial guess is 1-A.
 Requested convergence on RMS density matrix=1.00D-08 within 128 cycles.
 Requested convergence on MAX density matrix=1.00D-06.
 Requested convergence on             energy=1.00D-06.
 No special actions if energy rises.
 Integral accuracy reduced to 1.0D-05 until final iterations.
 Initial convergence to 1.0D-05 achieved.  Increase integral accuracy.
 SCF Done:  E(RHF) =  -1371.69832699     A.U. after   16 cycles
             Convg  =    0.5976D-08             -V/T =  2.0024
             S**2   =   0.0000

 **********************************************************************

            Population analysis using the SCF density.

 **********************************************************************

 Orbital symmetries:
 BldTbl:  Degeneracy threshold= 1.00D-02
       Occupied  (A) (A) (A) (A) (A) (A) (A) (A) (A) (A) (A) (A)
                 (A) (A) (A) (A) (A) (A) (A) (A) (A) (A) (A) (A)
                 (A) (A) (A) (A) (A) (A) (A) (A) (A) (A) (A) (A)
                 (A) (A) (A) (A) (A) (A) (A) (A) (A) (A) (A) (A)
                 (A) (A) (A) (A) (A) (A) (A) (A) (A) (A) (A) (A)
                 (A) (A) (A) (A) (A) (A) (A) (A) (A) (A) (A) (A)
                 (A) (A) (A) (A) (A) (A) (A) (A) (A) (A) (A) (A)
                 (A) (A) (A) (A) (A) (A) (A) (A) (A) (A) (A) (A)
                 (A) (A) (A) (A) (A) (A) (A) (A) (A) (A) (A) (A)
                 (A) (A) (A) (A) (A) (A)
       Virtual   (A) (A) (A) (A) (A) (A) (A) (A) (A) (A) (A) (A)
                 (A) (A) (A) (A) (A) (A) (A) (A) (A) (A) (A) (A)
                 (A) (A) (A) (A) (A) (A) (A) (A) (A) (A) (A) (A)
                 (A) (A) (A) (A) (A) (A) (A) (A) (A) (A) (A) (A)
                 (A) (A) (A) (A) (A) (A) (A) (A) (A) (A) (A) (A)
                 (A) (A) (A) (A) (A) (A) (A) (A) (A) (A) (A) (A)
                 (A) (A) (A) (A) (A) (A) (A) (A) (A) (A) (A) (A)
                 (A) (A) (A) (A) (A) (A) (A) (A) (A) (A) (A) (A)
                 (A) (A) (A) (A) (A) (A) (A) (A) (A) (A) (A) (A)
                 (A) (A) (A) (A) (A) (A) (A) (A) (A) (A) (A) (A)
                 (A) (A) (A) (A) (A) (A) (A) (A) (A) (A) (A) (A)
                 (A) (A) (A) (A) (A) (A) (A) (A) (A) (A) (A) (A)
                 (A) (A) (A) (A) (A) (A) (A) (A) (A) (A) (A) (A)
                 (A) (A) (A) (A) (A) (A) (A) (A) (A) (A) (A) (A)
                 (A) (A) (A) (A) (A) (A) (A) (A) (A) (A) (A) (A)
                 (A) (A) (A) (A) (A) (A) (A) (A) (A) (A) (A) (A)
                 (A) (A) (A) (A) (A) (A) (A) (A) (A) (A) (A) (A)
                 (A) (A) (A) (A) (A) (A) (A) (A) (A) (A) (A) (A)
                 (A) (A) (A) (A) (A) (A) (A) (A) (A) (A) (A) (A)
                 (A) (A) (A) (A) (A) (A) (A) (A) (A) (A) (A) (A)
                 (A) (A) (A) (A) (A) (A) (A) (A) (A) (A) (A) (A)
                 (A) (A) (A) (A) (A) (A) (A) (A) (A) (A) (A) (A)
                 (A) (A) (A) (A) (A) (A) (A) (A) (A) (A) (A) (A)
                 (A) (A) (A) (A) (A) (A) (A) (A) (A) (A) (A) (A)
                 (A) (A) (A) (A) (A) (A) (A) (A) (A) (A) (A) (A)
                 (A) (A) (A) (A) (A) (A) (A) (A) (A) (A) (A) (A)
                 (A) (A) (A) (A) (A) (A) (A) (A) (A) (A) (A) (A)
                 (A) (A) (A) (A) (A) (A) (A) (A) (A) (A) (A) (A)
                 (A) (A) (A) (A) (A) (A) (A) (A) (A) (A) (A) (A)
                 (A) (A) (A) (A) (A) (A) (A) (A) (A) (A) (A) (A)
                 (A) (A) (A) (A) (A) (A) (A) (A) (A) (A) (A) (A)
                 (A) (A) (A) (A) (A) (A) (A) (A) (A) (A) (A) (A)
                 (A) (A) (A) (A) (A) (A) (A) (A) (A) (A) (A) (A)
                 (A) (A) (A) (A) (A) (A) (A) (A) (A) (A) (A) (A)
                 (A) (A) (A) (A) (A) (A) (A) (A) (A) (A) (A) (A)
 The electronic state is 1-A.
 Alpha  occ. eigenvalues --  -20.46390 -20.28251 -20.28218 -15.54515 -15.51658
 Alpha  occ. eigenvalues --  -11.29800 -11.22811 -11.22420 -11.22328 -11.21883
 Alpha  occ. eigenvalues --  -11.18558 -11.18238 -11.18107 -11.18022 -11.17851
 Alpha  occ. eigenvalues --  -11.17575 -11.17483 -11.17273 -11.16897 -11.16791
 Alpha  occ. eigenvalues --  -11.16777 -11.16770 -11.16646 -11.16541 -11.16321
 Alpha  occ. eigenvalues --  -11.14118 -11.13525 -11.12679 -11.12625 -11.11359
 Alpha  occ. eigenvalues --  -11.11327 -11.10286  -1.31336  -1.20347  -1.17967
 Alpha  occ. eigenvalues --   -1.17147  -1.07929  -1.06709  -1.04903  -1.03520
 Alpha  occ. eigenvalues --   -1.02626  -0.99905  -0.96153  -0.94828  -0.94443
 Alpha  occ. eigenvalues --   -0.93982  -0.92175  -0.89436  -0.88891  -0.87583
 Alpha  occ. eigenvalues --   -0.83113  -0.80018  -0.78353  -0.76741  -0.75522
 Alpha  occ. eigenvalues --   -0.73648  -0.72685  -0.70600  -0.69704  -0.68018
 Alpha  occ. eigenvalues --   -0.65342  -0.62468  -0.61680  -0.61318  -0.60461
 Alpha  occ. eigenvalues --   -0.59928  -0.59489  -0.57261  -0.56473  -0.55801
 Alpha  occ. eigenvalues --   -0.55357  -0.54672  -0.54020  -0.53342  -0.52436
 Alpha  occ. eigenvalues --   -0.52063  -0.51409  -0.51049  -0.50888  -0.50124
 Alpha  occ. eigenvalues --   -0.49638  -0.49372  -0.48532  -0.47069  -0.46854
 Alpha  occ. eigenvalues --   -0.46490  -0.45683  -0.45080  -0.44820  -0.44203
 Alpha  occ. eigenvalues --   -0.43339  -0.42909  -0.42575  -0.42304  -0.41809
 Alpha  occ. eigenvalues --   -0.41400  -0.40523  -0.39087  -0.38682  -0.38422
 Alpha  occ. eigenvalues --   -0.36110  -0.35916  -0.35669  -0.34939  -0.33248
 Alpha  occ. eigenvalues --   -0.27287  -0.26141  -0.25349  -0.22239  -0.21487
 Alpha  occ. eigenvalues --   -0.21420  -0.18597  -0.18459  -0.17412
 Alpha virt. eigenvalues --    0.17989   0.19965   0.20172   0.22222   0.24688
 Alpha virt. eigenvalues --    0.25573   0.26863   0.27340   0.28383   0.29265
 Alpha virt. eigenvalues --    0.29850   0.30427   0.31847   0.32978   0.34224
 Alpha virt. eigenvalues --    0.35116   0.35273   0.35603   0.36013   0.36284
 Alpha virt. eigenvalues --    0.36973   0.37087   0.37560   0.37894   0.38576
 Alpha virt. eigenvalues --    0.38839   0.39215   0.39690   0.39746   0.41911
 Alpha virt. eigenvalues --    0.42194   0.42812   0.43020   0.43540   0.43768
 Alpha virt. eigenvalues --    0.44022   0.44378   0.45307   0.45700   0.47017
 Alpha virt. eigenvalues --    0.47782   0.48116   0.48849   0.49693   0.50718
 Alpha virt. eigenvalues --    0.51735   0.52677   0.53158   0.54009   0.54677
 Alpha virt. eigenvalues --    0.55141   0.55853   0.57055   0.58124   0.59080
 Alpha virt. eigenvalues --    0.60364   0.60510   0.61748   0.62108   0.62232
 Alpha virt. eigenvalues --    0.63465   0.66327   0.67487   0.68146   0.69246
 Alpha virt. eigenvalues --    0.72095   0.74482   0.75430   0.76512   0.76741
 Alpha virt. eigenvalues --    0.77456   0.78849   0.79372   0.79439   0.79607
 Alpha virt. eigenvalues --    0.80321   0.81172   0.81517   0.81756   0.82454
 Alpha virt. eigenvalues --    0.83076   0.83412   0.84495   0.85492   0.86524
 Alpha virt. eigenvalues --    0.86697   0.86839   0.87486   0.87708   0.88187
 Alpha virt. eigenvalues --    0.88847   0.89328   0.89806   0.89998   0.90539
 Alpha virt. eigenvalues --    0.90586   0.90770   0.91132   0.91847   0.92460
 Alpha virt. eigenvalues --    0.93577   0.93828   0.94300   0.94899   0.95052
 Alpha virt. eigenvalues --    0.95564   0.96163   0.96394   0.97203   0.97879
 Alpha virt. eigenvalues --    0.99224   0.99527   0.99790   1.00458   1.00810
 Alpha virt. eigenvalues --    1.01847   1.02189   1.03083   1.03536   1.04531
 Alpha virt. eigenvalues --    1.05382   1.06894   1.07803   1.08975   1.09323
 Alpha virt. eigenvalues --    1.09909   1.11761   1.12426   1.13540   1.13879
 Alpha virt. eigenvalues --    1.14484   1.14575   1.16153   1.16856   1.17005
 Alpha virt. eigenvalues --    1.17542   1.17846   1.17973   1.18300   1.18453
 Alpha virt. eigenvalues --    1.18685   1.19152   1.19636   1.20296   1.20412
 Alpha virt. eigenvalues --    1.21368   1.21514   1.22030   1.22411   1.22820
 Alpha virt. eigenvalues --    1.23325   1.23641   1.23753   1.24204   1.24512
 Alpha virt. eigenvalues --    1.25032   1.25099   1.25613   1.26219   1.26637
 Alpha virt. eigenvalues --    1.26914   1.27225   1.27772   1.29102   1.29500
 Alpha virt. eigenvalues --    1.29684   1.30058   1.30659   1.30781   1.31735
 Alpha virt. eigenvalues --    1.32413   1.33104   1.33631   1.34282   1.36254
 Alpha virt. eigenvalues --    1.37328   1.37655   1.38043   1.38672   1.39100
 Alpha virt. eigenvalues --    1.40028   1.40266   1.40585   1.42950   1.43692
 Alpha virt. eigenvalues --    1.45073   1.46476   1.47170   1.47920   1.48966
 Alpha virt. eigenvalues --    1.49214   1.50158   1.50374   1.51778   1.52170
 Alpha virt. eigenvalues --    1.53212   1.53523   1.54923   1.55259   1.56600
 Alpha virt. eigenvalues --    1.57413   1.58054   1.59160   1.62728   1.63897
 Alpha virt. eigenvalues --    1.66057   1.66526   1.66597   1.68733   1.69976
 Alpha virt. eigenvalues --    1.71002   1.71806   1.72387   1.73896   1.75712
 Alpha virt. eigenvalues --    1.76797   1.77194   1.77437   1.77813   1.78791
 Alpha virt. eigenvalues --    1.79561   1.80863   1.82550   1.82819   1.83711
 Alpha virt. eigenvalues --    1.84063   1.84376   1.84698   1.85187   1.85450
 Alpha virt. eigenvalues --    1.86463   1.87030   1.87616   1.88266   1.91037
 Alpha virt. eigenvalues --    1.92502   1.92769   1.95600   1.96522   1.98293
 Alpha virt. eigenvalues --    1.99063   2.01581   2.02626   2.05797   2.07078
 Alpha virt. eigenvalues --    2.07680   2.08247   2.11059   2.13523   2.14685
 Alpha virt. eigenvalues --    2.15229   2.16021   2.16330   2.16961   2.17360
 Alpha virt. eigenvalues --    2.17445   2.17854   2.18876   2.19886   2.20706
 Alpha virt. eigenvalues --    2.21418   2.21908   2.22619   2.23088   2.23503
 Alpha virt. eigenvalues --    2.24343   2.24697   2.25962   2.27253   2.28475
 Alpha virt. eigenvalues --    2.29852   2.30339   2.30718   2.31035   2.32383
 Alpha virt. eigenvalues --    2.32648   2.33129   2.35778   2.36446   2.37179
 Alpha virt. eigenvalues --    2.37750   2.38184   2.39068   2.39781   2.40025
 Alpha virt. eigenvalues --    2.41484   2.42602   2.43231   2.43728   2.44239
 Alpha virt. eigenvalues --    2.45379   2.45882   2.46361   2.47023   2.48227
 Alpha virt. eigenvalues --    2.48613   2.49915   2.51387   2.51768   2.52430
 Alpha virt. eigenvalues --    2.53103   2.53533   2.54285   2.55164   2.56682
 Alpha virt. eigenvalues --    2.57067   2.57561   2.58236   2.59748   2.60812
 Alpha virt. eigenvalues --    2.61816   2.62700   2.64120   2.64571   2.65087
 Alpha virt. eigenvalues --    2.66023   2.67362   2.67794   2.68623   2.69005
 Alpha virt. eigenvalues --    2.71081   2.71480   2.72288   2.72669   2.73193
 Alpha virt. eigenvalues --    2.74259   2.74538   2.75392   2.77049   2.78453
 Alpha virt. eigenvalues --    2.80758   2.82119   2.83028   2.83877   2.84186
 Alpha virt. eigenvalues --    2.85793   2.88633   2.90543   2.92231   2.94289
 Alpha virt. eigenvalues --    2.97699   2.98699   2.99337   2.99619   3.00037
 Alpha virt. eigenvalues --    3.01046   3.02496   3.03396   3.03961   3.05252
 Alpha virt. eigenvalues --    3.06605   3.08721   3.09467   3.10243   3.10705
 Alpha virt. eigenvalues --    3.10962   3.11090   3.13876   3.14788   3.15096
 Alpha virt. eigenvalues --    3.16323   3.19188   3.20344   3.22113   3.22471
 Alpha virt. eigenvalues --    3.23701   3.24126   3.25539   3.26108   3.26791
 Alpha virt. eigenvalues --    3.31669   3.33515   3.33647   3.37002   3.37856
 Alpha virt. eigenvalues --    3.41908   3.45593   3.49809   3.49911   3.55343
 Alpha virt. eigenvalues --    3.60728   3.62174   3.68022   3.71002   3.74754
 Alpha virt. eigenvalues --    3.82828   3.84495   3.94594   4.50301   4.52062
 Alpha virt. eigenvalues --    4.54562   4.57042   4.59509   4.60029   4.60399
 Alpha virt. eigenvalues --    4.62811   4.64688   4.65448   4.65722   4.68135
 Alpha virt. eigenvalues --    4.68692   4.70923   4.72687   4.79094   4.82284
 Alpha virt. eigenvalues --    4.83495   4.85399   4.87016   4.87461   4.89158
 Alpha virt. eigenvalues --    4.94890   4.95892   4.98552   5.05250   5.07284
 Alpha virt. eigenvalues --    5.07485   5.16529   5.20926   5.25378   5.32424
          Condensed to atoms (all electrons):
 Mulliken atomic charges:
              1
     1  C   -0.479126
     2  C   -0.323108
     3  C   -0.310072
     4  C    0.078814
     5  C   -0.375431
     6  C    0.109609
     7  N   -0.889919
     8  C    0.398638
     9  C   -0.276085
    10  C   -0.173761
    11  C   -0.235675
    12  C   -0.171849
    13  C   -0.275473
    14  C   -0.034982
    15  C   -0.241247
    16  C    0.022539
    17  C   -0.223162
    18  C   -0.213547
    19  C    0.284406
    20  N   -0.796276
    21  C    0.752215
    22  C   -0.574351
    23  O   -0.642469
    24  C    0.007573
    25  C   -0.230455
    26  C   -0.194632
    27  C   -0.124168
    28  C   -0.195007
    29  C   -0.233923
    30  C    0.750459
    31  O   -0.753794
    32  H    0.203727
    33  H    0.183859
    34  H    0.151571
    35  H    0.155420
    36  H    0.171206
    37  H    0.158965
    38  H    0.153650
    39  H    0.194746
    40  H    0.162048
    41  H    0.181978
    42  H    0.174283
    43  H    0.378860
    44  H    0.185567
    45  H    0.196476
    46  H    0.187657
    47  H    0.201696
    48  H    0.209204
    49  H    0.247082
    50  H    0.215868
    51  H    0.202403
    52  H    0.204030
    53  H    0.196559
    54  H    0.189627
    55  H    0.176454
    56  H    0.229955
    57  H    0.229500
    58  H    0.173732
    59  O   -0.751864
 Sum of Mulliken charges=  -1.00000
 Atomic charges with hydrogens summed into heavy atoms:
              1
     1  C   -0.000929
     2  C   -0.010494
     3  C    0.046722
     4  C    0.282541
     5  C   -0.019169
     6  C    0.293468
     7  N   -0.511059
     8  C    0.398638
     9  C   -0.090518
    10  C    0.022715
    11  C   -0.048018
    12  C    0.029847
    13  C   -0.066269
    14  C   -0.034982
    15  C    0.005836
    16  C    0.022539
    17  C   -0.007294
    18  C   -0.011143
    19  C    0.284406
    20  N   -0.796276
    21  C    0.752215
    22  C    0.015864
    23  O   -0.642469
    24  C    0.007573
    25  C   -0.054000
    26  C    0.035323
    27  C   -0.124168
    28  C    0.034493
    29  C   -0.060192
    30  C    0.750459
    31  O   -0.753794
    32  H    0.000000
    33  H    0.000000
    34  H    0.000000
    35  H    0.000000
    36  H    0.000000
    37  H    0.000000
    38  H    0.000000
    39  H    0.000000
    40  H    0.000000
    41  H    0.000000
    42  H    0.000000
    43  H    0.000000
    44  H    0.000000
    45  H    0.000000
    46  H    0.000000
    47  H    0.000000
    48  H    0.000000
    49  H    0.000000
    50  H    0.000000
    51  H    0.000000
    52  H    0.000000
    53  H    0.000000
    54  H    0.000000
    55  H    0.000000
    56  H    0.000000
    57  H    0.000000
    58  H    0.000000
    59  O   -0.751864
 Sum of Mulliken charges=  -1.00000
 Entering OneElI...
 OneElI was handed  5852980 working-precision words.
 Multipole integrals L=0 to 4 MinM= 0 MaxM= 0.
 Requested accuracy = 0.1000D-12
 PrsmSu:  NPrtUS=   1 ThrOK=F
 PRISM was handed     4947476 working-precision words and 10219 shell-pairs
 Electronic moments (au):
  -228.00000000    11.68639217     2.02982340     0.45608446
-12734.26880529 -4334.91229330 -1454.02380761   -19.04978476
   -25.89924016    -4.17841408 33381.09197250-17905.27355648
  -707.27089837  1714.99857815 22278.62602657 13550.33689718
 -4625.69877016   268.21736582 -5370.98467392  2527.69627405
******************************-27389.98678095-97688.97748008
  5314.11893820 29831.55944008-18550.85819926  3121.13064237
  -121.04710784-92196.52105095-94157.67060773-29974.18902118
  8255.70298438  -388.75313250 15457.18290099
 Electronic spatial extent (au):  <R**2>= 18523.2049
 Nuclear    moments (au):
   227.00000000     0.00000000     0.00000000     0.00000000
 12377.55073130  4188.47505751  1312.21901595     0.00000000
     0.00000000     0.00000000-30759.07820557 17881.25482964
   735.43645690 -1695.53275015-21815.80027391-13397.88348698
  4678.68102849  -244.09874376  5357.02021422 -2510.77058461
***************227790.06613187 22296.98534585 93054.53329217
 -9763.37657093-30609.50907278 18137.80356758 -3225.80773797
    24.97743996 80424.59655601 84642.82533228 26586.60133023
 -7923.08074084   200.19060101-15499.07682302
 Total      moments (au):
    -1.00000000    11.68639217     2.02982340     0.45608446
  -356.71807399  -146.43723579  -141.80479166   -19.04978476
   -25.89924016    -4.17841408  2622.01376694   -24.01872684
    28.16555852    19.46582800   462.82575266   152.45341020
    52.98225833    24.11862206   -13.96445970    16.92568944
-90930.75694438-15804.57358384 -5093.00143510 -4634.44418791
 -4449.25763273  -777.94963270  -413.05463169  -104.67709560
   -96.06966788-11771.92449494 -9514.84527545 -3387.58769096
   332.62224353  -188.56253149   -41.89392202
 Charge=    -1.0000 electrons
 Dipole moment (field-independent basis, Debye):
    X=    29.7038    Y=     5.1593    Z=     1.1593  Tot=    30.1709
 Quadrupole moment (field-independent basis, Debye-Ang):
   XX=  -479.7980   YY=  -196.9631   ZZ=  -190.7323
   XY=   -25.6226   XZ=   -34.8354   YZ=    -5.6201
 Traceless Quadrupole moment (field-independent basis, Debye-Ang):
   XX=  -190.6335   YY=    92.2014   ZZ=    98.4322
   XY=   -25.6226   XZ=   -34.8354   YZ=    -5.6201
 Octapole moment (field-independent basis, Debye-Ang**2):
  XXX=  1866.2482  YYY=   -17.0956  ZZZ=    20.0472  XYY=    13.8550
  XXY=   329.4215  XXZ=   108.5105  XZZ=    37.7107  YZZ=    17.1667
  YYZ=    -9.9394  XYZ=    12.0471
 Hexadecapole moment (field-independent basis, Debye-Ang**3):
 XXXX=-34248.8805 YYYY= -5952.7598 ZZZZ= -1918.2684 XXXY= -1745.5538
 XXXZ= -1675.8036 YYYX=  -293.0131 YYYZ=  -155.5762 ZZZX=   -39.4264
 ZZZY=   -36.1844 XXYY= -4433.8709 XXZZ= -3583.7467 YYZZ= -1275.9279
 XXYZ=   125.2815 YYXZ=   -71.0217 ZZXY=   -15.7793
 N-N= 3.013107466313D+03 E-N=-9.251047608583D+03  KE= 1.368455471989D+03
 Entering OneElI...
 OneElI was handed  5280659 working-precision words.
 Calculate electrostatic properties
    NBasis =   534  MinDer = 0  MaxDer = 0
    NGrid  =    59  NMatD  =   1
 Requested accuracy = 0.1000D-12
 PrsmSu:  NPrtUS=   1 ThrOK=F
 PRISM was handed     4461467 working-precision words and  8873 shell-pairs
 --------------------------------------------------------
       Center         ----      EFG at Nuclei      ----
                      3XX-RR        3YY-RR        3ZZ-RR
 --------------------------------------------------------
     1   Atom       -0.016530      0.012344      0.004185
     2   Atom       -0.014065      0.016932     -0.002866
     3   Atom        0.018715     -0.009308     -0.009408
     4   Atom        0.025598     -0.032541      0.006943
     5   Atom       -0.008377      0.007895      0.000482
     6   Atom        0.018655     -0.108031      0.089376
     7   Atom        0.652925     -0.119248     -0.533677
     8   Atom       -0.219180      0.014788      0.204393
     9   Atom       -0.076372      0.029294      0.047078
    10   Atom       -0.191455      0.013711      0.177744
    11   Atom       -0.124954      0.020421      0.104533
    12   Atom       -0.186090      0.058785      0.127304
    13   Atom       -0.088794      0.038762      0.050032
    14   Atom        0.173161      0.081620     -0.254780
    15   Atom        0.137878      0.166193     -0.304071
    16   Atom        0.184723      0.171067     -0.355789
    17   Atom        0.150073      0.146299     -0.296372
    18   Atom        0.187829      0.081770     -0.269599
    19   Atom       -0.145298      0.259950     -0.114653
    20   Atom       -0.503631      0.499971      0.003660
    21   Atom        0.339146     -0.371648      0.032503
    22   Atom        0.056443      0.007105     -0.063548
    23   Atom       -0.951042     -0.315041      1.266083
    24   Atom        0.057545     -0.053440     -0.004105
    25   Atom        0.186821     -0.128127     -0.058694
    26   Atom        0.182928     -0.129946     -0.052981
    27   Atom        0.256829     -0.162357     -0.094471
    28   Atom        0.180133     -0.128459     -0.051673
    29   Atom        0.196169     -0.129462     -0.066707
    30   Atom        0.183020     -0.145416     -0.037604
    31   Atom        0.393990     -0.277256     -0.116734
    32   Atom       -0.075972      0.063132      0.012840
    33   Atom        0.083537      0.115435     -0.198973
    34   Atom       -0.029038      0.081377     -0.052339
    35   Atom        0.124200     -0.076951     -0.047249
    36   Atom        0.040161     -0.091259      0.051098
    37   Atom        0.111103     -0.029511     -0.081593
    38   Atom        0.046621     -0.101232      0.054610
    39   Atom        0.034818     -0.104626      0.069807
    40   Atom       -0.085154      0.072907      0.012247
    41   Atom       -0.026002     -0.114322      0.140324
    42   Atom        0.087604      0.114576     -0.202180
    43   Atom        0.195966      0.151624     -0.347591
    44   Atom        0.152543      0.139837     -0.292380
    45   Atom        0.097524     -0.149307      0.051783
    46   Atom        0.017925     -0.042660      0.024735
    47   Atom        0.146564      0.142913     -0.289477
    48   Atom        0.106824     -0.144380      0.037556
    49   Atom        0.053987     -0.200089      0.146102
    50   Atom        0.020341     -0.187811      0.167469
    51   Atom        0.059871     -0.218038      0.158168
    52   Atom        0.002123      0.152397     -0.154520
    53   Atom       -0.133710      0.005732      0.127979
    54   Atom        0.115877     -0.246334      0.130457
    55   Atom       -0.007659      0.018718     -0.011058
    56   Atom        0.090579     -0.011292     -0.079287
    57   Atom        0.010008      0.006441     -0.016449
    58   Atom        0.076060     -0.000469     -0.075591
    59   Atom        0.891939     -0.387087     -0.504851
 --------------------------------------------------------
                        XY            XZ            YZ
 --------------------------------------------------------
     1   Atom       -0.009997     -0.004329     -0.006914
     2   Atom       -0.017792     -0.005642      0.001063
     3   Atom       -0.014377      0.043813     -0.037543
     4   Atom       -0.110406      0.172134      0.189938
     5   Atom        0.030405      0.015687      0.023522
     6   Atom        0.120365     -0.044891      0.118563
     7   Atom        0.852546      0.379810      0.241010
     8   Atom       -0.164835     -0.031434     -0.206442
     9   Atom       -0.130755     -0.061123     -0.008456
    10   Atom       -0.227914     -0.127782     -0.055156
    11   Atom       -0.142754     -0.059506     -0.062284
    12   Atom       -0.254674     -0.102563     -0.072711
    13   Atom       -0.129775     -0.063196     -0.015542
    14   Atom       -0.003024      0.062926     -0.113969
    15   Atom        0.008792      0.040091     -0.087905
    16   Atom        0.011372      0.054883     -0.097903
    17   Atom       -0.009136      0.050165     -0.071757
    18   Atom        0.006929      0.023179     -0.078230
    19   Atom        0.024984      0.010365     -0.092811
    20   Atom       -0.120923     -0.090807      0.724642
    21   Atom        0.005079     -0.091809     -0.321316
    22   Atom       -0.019699      0.057770      0.030258
    23   Atom        0.181384     -0.299638     -0.949753
    24   Atom        0.020645     -0.001447     -0.229316
    25   Atom       -0.004113      0.037995     -0.192084
    26   Atom        0.028963      0.013066     -0.299731
    27   Atom        0.017197      0.028489     -0.289146
    28   Atom        0.014704      0.017598     -0.300731
    29   Atom        0.024280      0.002618     -0.185022
    30   Atom        0.035658      0.009550     -0.429903
    31   Atom       -0.811064      0.974389     -0.158500
    32   Atom       -0.142080     -0.160719     -0.097815
    33   Atom       -0.035231     -0.150936     -0.097590
    34   Atom       -0.119088      0.191122      0.123385
    35   Atom        0.073716      0.069741     -0.220230
    36   Atom        0.160771     -0.109888      0.157666
    37   Atom        0.079859      0.095559     -0.207564
    38   Atom        0.160543     -0.100922      0.160632
    39   Atom        0.169614     -0.088313      0.143253
    40   Atom       -0.137898     -0.175745     -0.108426
    41   Atom       -0.209987      0.047831      0.061547
    42   Atom       -0.038916     -0.144842     -0.110237
    43   Atom        0.023521      0.100624      0.119855
    44   Atom        0.001556      0.088261      0.079756
    45   Atom        0.149579     -0.076740      0.176176
    46   Atom        0.181763      0.139600     -0.150926
    47   Atom       -0.005362      0.088059      0.074918
    48   Atom        0.148095     -0.071653      0.182027
    49   Atom        0.177545     -0.049338      0.088396
    50   Atom       -0.206616      0.016841      0.033004
    51   Atom        0.179528     -0.040096      0.072381
    52   Atom        0.003820     -0.211718      0.012310
    53   Atom        0.206160      0.079433     -0.048315
    54   Atom       -0.136175     -0.024072     -0.081229
    55   Atom       -0.152784      0.161601      0.169852
    56   Atom        0.104300     -0.123428      0.202626
    57   Atom       -0.148493      0.158590      0.164789
    58   Atom        0.108795     -0.129795      0.208319
    59   Atom        0.751244     -0.763874      0.070521
 --------------------------------------------------------


 ---------------------------------------------------------------------------------
              Nuclear Quadrupole in Principal Axis System
 ---------------------------------------------------------------------------------

       Atom             a.u.   MegaHertz   Gauss  10(-4) cm-1        Axes

              Baa    -0.0212    -2.846    -1.016    -0.949  0.9146  0.3227  0.2438
     1 C(13)  Bbb     0.0035     0.468     0.167     0.156 -0.3442  0.3048  0.8880
              Bcc     0.0177     2.378     0.849     0.793 -0.2123  0.8961 -0.3899
 
              Baa    -0.0233    -3.121    -1.114    -1.041  0.8928  0.3893  0.2267
     2 C(13)  Bbb    -0.0022    -0.291    -0.104    -0.097 -0.1579 -0.2010  0.9668
              Bcc     0.0254     3.411     1.217     1.138 -0.4219  0.8989  0.1179
 
              Baa    -0.0550    -7.385    -2.635    -2.463 -0.3578  0.5228  0.7737
     3 C(13)  Bbb    -0.0116    -1.551    -0.554    -0.517  0.6430  0.7388 -0.2019
              Bcc     0.0666     8.936     3.189     2.981  0.6772 -0.4253  0.6005
 
              Baa    -0.3187   -42.770   -15.261   -14.266 -0.5028 -0.6042  0.6182
     4 C(13)  Bbb     0.1085    14.557     5.194     4.856  0.7074 -0.6986 -0.1074
              Bcc     0.2102    28.213    10.067     9.411  0.4967  0.3833  0.7787
 
              Baa    -0.0319    -4.280    -1.527    -1.428  0.7633 -0.6391  0.0945
     5 C(13)  Bbb    -0.0161    -2.161    -0.771    -0.721 -0.3916 -0.3413  0.8545
              Bcc     0.0480     6.441     2.298     2.148  0.5139  0.6892  0.5108
 
              Baa    -0.2297   -30.822   -10.998   -10.281 -0.4586  0.8100 -0.3655
     6 C(13)  Bbb     0.0833    11.177     3.988     3.728  0.8779  0.3492 -0.3277
              Bcc     0.1464    19.645     7.010     6.553  0.1378  0.4712  0.8712
 
              Baa    -0.6694   -25.819    -9.213    -8.612 -0.5618  0.8187  0.1183
     7 N(14)  Bbb    -0.6429   -24.795    -8.847    -8.271 -0.1316 -0.2297  0.9643
              Bcc     1.3123    50.614    18.060    16.883  0.8167  0.5262  0.2367
 
              Baa    -0.3360   -45.090   -16.089   -15.040  0.8119  0.5280  0.2489
     8 C(13)  Bbb    -0.0084    -1.126    -0.402    -0.376 -0.5710  0.6298  0.5266
              Bcc     0.3444    46.216    16.491    15.416  0.1213 -0.5697  0.8128
 
              Baa    -0.1783   -23.931    -8.539    -7.982  0.8168  0.5242  0.2411
     9 C(13)  Bbb     0.0504     6.758     2.412     2.254  0.0114 -0.4325  0.9016
              Bcc     0.1280    17.173     6.128     5.728 -0.5769  0.7336  0.3592
 
              Baa    -0.3731   -50.063   -17.864   -16.699  0.8204  0.5180  0.2422
    10 C(13)  Bbb     0.1527    20.488     7.311     6.834 -0.4281  0.8372 -0.3403
              Bcc     0.2204    29.575    10.553     9.865 -0.3790  0.1755  0.9086
 
              Baa    -0.2331   -31.279   -11.161   -10.433  0.8193  0.5204  0.2404
    11 C(13)  Bbb     0.0935    12.553     4.479     4.187 -0.5582  0.6288  0.5412
              Bcc     0.1395    18.726     6.682     6.246  0.1305 -0.5777  0.8058
 
              Baa    -0.3775   -50.651   -18.073   -16.895  0.8200  0.5190  0.2414
    12 C(13)  Bbb     0.1578    21.172     7.555     7.062 -0.2618 -0.0350  0.9645
              Bcc     0.2197    29.478    10.519     9.833 -0.5090  0.8541 -0.1072
 
              Baa    -0.1859   -24.950    -8.903    -8.322  0.8296  0.4968  0.2549
    13 C(13)  Bbb     0.0599     8.033     2.866     2.680 -0.0458 -0.3945  0.9178
              Bcc     0.1261    16.916     6.036     5.643 -0.5565  0.7730  0.3045
 
              Baa    -0.2972   -39.887   -14.233   -13.305 -0.1253  0.2849  0.9503
    14 C(13)  Bbb     0.1102    14.793     5.278     4.934  0.2851  0.9278 -0.2405
              Bcc     0.1870    25.094     8.954     8.371  0.9503 -0.2408  0.1975
 
              Baa    -0.3236   -43.426   -15.495   -14.485 -0.0885  0.1775  0.9801
    15 C(13)  Bbb     0.1415    18.984     6.774     6.332  0.9954 -0.0209  0.0937
              Bcc     0.1821    24.442     8.721     8.153  0.0371  0.9839 -0.1748
 
              Baa    -0.3790   -50.853   -18.146   -16.963 -0.0989  0.1764  0.9793
    16 C(13)  Bbb     0.1878    25.201     8.992     8.406 -0.5062  0.8384 -0.2021
              Bcc     0.1912    25.652     9.153     8.557  0.8567  0.5158 -0.0064
 
              Baa    -0.3127   -41.965   -14.974   -13.998 -0.1036  0.1516  0.9830
    17 C(13)  Bbb     0.1395    18.726     6.682     6.246  0.7294  0.6835 -0.0286
              Bcc     0.1732    23.239     8.292     7.752 -0.6762  0.7141 -0.1814
 
              Baa    -0.2875   -38.573   -13.764   -12.867 -0.0507  0.2079  0.9768
    18 C(13)  Bbb     0.0984    13.199     4.710     4.403 -0.0215  0.9776 -0.2092
              Bcc     0.1891    25.375     9.054     8.464  0.9985  0.0316  0.0451
 
              Baa    -0.1580   -21.196    -7.563    -7.070  0.8062 -0.1738 -0.5655
    19 C(13)  Bbb    -0.1249   -16.755    -5.979    -5.589  0.5894  0.1531  0.7932
              Bcc     0.2828    37.951    13.542    12.659  0.0513  0.9728 -0.2258
 
              Baa    -0.5205   -20.075    -7.163    -6.696  0.8684 -0.2146  0.4471
    20 N(14)  Bbb    -0.5121   -19.752    -7.048    -6.589 -0.4861 -0.5464  0.6820
              Bcc     1.0326    39.827    14.211    13.285 -0.0979  0.8096  0.5788
 
              Baa    -0.5510   -73.934   -26.381   -24.662  0.0453  0.8720  0.4874
    21 C(13)  Bbb     0.1700    22.810     8.139     7.609  0.4350 -0.4564  0.7762
              Bcc     0.3810    51.124    18.242    17.053  0.8993  0.1768 -0.4000
 
              Baa    -0.0987   -13.249    -4.727    -4.419 -0.3660 -0.3182  0.8746
    22 C(13)  Bbb     0.0183     2.450     0.874     0.817 -0.0199  0.9422  0.3344
              Bcc     0.0805    10.798     3.853     3.602  0.9304 -0.1050  0.3512
 
              Baa    -1.0015    72.465    25.857    24.172  0.9805 -0.1899  0.0501
    23 O(17)  Bbb    -0.7546    54.603    19.484    18.214  0.1492  0.8862  0.4386
              Bcc     1.7561  -127.068   -45.341   -42.385 -0.1276 -0.4226  0.8973
 
              Baa    -0.2601   -34.898   -12.453   -11.641 -0.0453  0.7442  0.6665
    24 C(13)  Bbb     0.0567     7.605     2.714     2.537  0.9938 -0.0344  0.1060
              Bcc     0.2034    27.293     9.739     9.104 -0.1018 -0.6671  0.7380
 
              Baa    -0.2896   -38.856   -13.865   -12.961 -0.0447  0.7643  0.6433
    25 C(13)  Bbb     0.0913    12.255     4.373     4.088 -0.3124 -0.6223  0.7177
              Bcc     0.1982    26.600     9.492     8.873  0.9489 -0.1689  0.2666
 
              Baa    -0.3953   -53.039   -18.926   -17.692 -0.0525  0.7503  0.6590
    26 C(13)  Bbb     0.1816    24.363     8.693     8.127  0.9514 -0.1631  0.2614
              Bcc     0.2137    28.676    10.232     9.565 -0.3036 -0.6407  0.7052
 
              Baa    -0.4210   -56.499   -20.160   -18.846 -0.0468  0.7458  0.6645
    27 C(13)  Bbb     0.1617    21.701     7.743     7.239 -0.1012 -0.6653  0.7397
              Bcc     0.2593    34.799    12.417    11.608  0.9938 -0.0326  0.1067
 
              Baa    -0.3941   -52.889   -18.872   -17.642 -0.0394  0.7498  0.6605
    28 C(13)  Bbb     0.1807    24.242     8.650     8.086  0.9935  0.1001 -0.0543
              Bcc     0.2135    28.647    10.222     9.556  0.1068 -0.6540  0.7489
 
              Baa    -0.2866   -38.459   -13.723   -12.828 -0.0419  0.7642  0.6436
    29 C(13)  Bbb     0.0879    11.792     4.208     3.933  0.1240 -0.6352  0.7624
              Bcc     0.1987    26.667     9.515     8.895  0.9914  0.1117 -0.0681
 
              Baa    -0.5263   -70.627   -25.202   -23.559 -0.0466  0.7496  0.6603
    30 C(13)  Bbb     0.1829    24.539     8.756     8.185  0.9936 -0.0332  0.1078
              Bcc     0.3435    46.089    16.446    15.373 -0.1027 -0.6611  0.7432
 
              Baa    -1.1034    79.839    28.489    26.632  0.6453  0.5275 -0.5525
    31 O(17)  Bbb    -0.3660    26.484     9.450     8.834 -0.0471  0.7494  0.6605
              Bcc     1.4694  -106.324   -37.939   -35.466  0.7625 -0.4002  0.5084
 
              Baa    -0.2839  -151.472   -54.049   -50.526  0.7179  0.4449  0.5355
    32 H(1)   Bbb     0.1320    70.410    25.124    23.486 -0.4059 -0.3574  0.8411
              Bcc     0.1519    81.062    28.925    27.039 -0.5655  0.8212  0.0760
 
              Baa    -0.2908  -155.179   -55.372   -51.762  0.3822  0.2470  0.8904
    33 H(1)   Bbb     0.1382    73.715    26.303    24.589 -0.5469  0.8372  0.0025
              Bcc     0.1527    81.464    29.068    27.173  0.7449  0.4879 -0.4551
 
              Baa    -0.3077  -164.189   -58.587   -54.768 -0.6285 -0.4033  0.6651
    34 H(1)   Bbb     0.1502    80.139    28.596    26.731  0.6187  0.2591  0.7417
              Bcc     0.1575    84.050    29.991    28.036 -0.4714  0.8776  0.0867
 
              Baa    -0.3067  -163.654   -58.396   -54.589 -0.2292  0.7109  0.6649
    35 H(1)   Bbb     0.1481    78.999    28.189    26.351  0.9719  0.2052  0.1157
              Bcc     0.1587    84.655    30.207    28.238  0.0542 -0.6727  0.7379
 
              Baa    -0.3034  -161.877   -57.762   -53.996 -0.4930  0.7279 -0.4766
    36 H(1)   Bbb     0.1471    78.482    28.004    26.179  0.6906  0.6606  0.2945
              Bcc     0.1563    83.395    29.758    27.818 -0.5292  0.1839  0.8283
 
              Baa    -0.3022  -161.261   -57.542   -53.791 -0.2884  0.6319  0.7194
    37 H(1)   Bbb     0.1470    78.455    27.995    26.170  0.8612  0.4996 -0.0937
              Bcc     0.1552    82.805    29.547    27.621  0.4186 -0.5925  0.6883
 
              Baa    -0.3043  -162.366   -57.936   -54.160 -0.4754  0.7454 -0.4673
    38 H(1)   Bbb     0.1491    79.540    28.382    26.532  0.8789  0.4260 -0.2146
              Bcc     0.1552    82.826    29.555    27.628 -0.0391  0.5127  0.8577
 
              Baa    -0.2957  -157.762   -56.294   -52.624 -0.5007  0.7580 -0.4181
    39 H(1)   Bbb     0.1420    75.767    27.036    25.273  0.7290  0.1088 -0.6758
[...]
 **** Fit      -0.050640
 **** Fit      -0.052454
 **** Fit      -0.054085
 **** Fit      -0.055238
 **** Fit      -0.055728
 **** Fit      -0.055495
 **** Fit      -0.054589
 **** Fit      -0.047071
 **** Fit      -0.047710
 **** Fit      -0.049068
 **** Fit      -0.051054
 **** Fit      -0.053364
 **** Fit      -0.055602
 **** Fit      -0.057431
 **** Fit      -0.058627
 **** Fit      -0.059068
 **** Fit      -0.058728
 **** Fit      -0.057670
 **** Fit      -0.056012
 **** Fit      -0.046845
 **** Fit      -0.048045
 **** Fit      -0.050240
 **** Fit      -0.053167
 **** Fit      -0.056290
 **** Fit      -0.059103
 **** Fit      -0.061279
 **** Fit      -0.062637
 **** Fit      -0.063087
 **** Fit      -0.062616
 **** Fit      -0.061288
 **** Fit      -0.059224
 **** Fit      -0.045705
 **** Fit      -0.046507
 **** Fit      -0.048623
 **** Fit      -0.052057
 **** Fit      -0.056171
 **** Fit      -0.060150
 **** Fit      -0.063474
 **** Fit      -0.065922
 **** Fit      -0.067413
 **** Fit      -0.067902
 **** Fit      -0.067359
 **** Fit      -0.065798
 **** Fit      -0.063303
 **** Fit      -0.062213
 **** Fit      -0.066673
 **** Fit      -0.069995
 **** Fit      -0.072228
 **** Fit      -0.044425
 **** Fit      -0.043830
 **** Fit      -0.043836
 **** Fit      -0.045784
 **** Fit      -0.044482
 **** Fit      -0.043574
 **** Fit      -0.043200
 **** Fit      -0.043423
 **** Fit      -0.044226
 **** Fit      -0.048636
 **** Fit      -0.046855
 **** Fit      -0.045187
 **** Fit      -0.043849
 **** Fit      -0.042980
 **** Fit      -0.042660
 **** Fit      -0.042936
 **** Fit      -0.043820
 **** Fit      -0.045282
 **** Fit      -0.050276
 **** Fit      -0.048171
 **** Fit      -0.046177
 **** Fit      -0.044488
 **** Fit      -0.043219
 **** Fit      -0.042439
 **** Fit      -0.042191
 **** Fit      -0.042507
 **** Fit      -0.043414
 **** Fit      -0.044931
 **** Fit      -0.047063
 **** Fit      -0.051881
 **** Fit      -0.049254
 **** Fit      -0.046852
 **** Fit      -0.044848
 **** Fit      -0.043319
 **** Fit      -0.042305
 **** Fit      -0.041832
 **** Fit      -0.041924
 **** Fit      -0.042614
 **** Fit      -0.043944
 **** Fit      -0.045974
 **** Fit      -0.048777
 **** Fit      -0.053525
 **** Fit      -0.050255
 **** Fit      -0.047427
 **** Fit      -0.045146
 **** Fit      -0.043423
 **** Fit      -0.042245
 **** Fit      -0.041603
 **** Fit      -0.041503
 **** Fit      -0.041968
 **** Fit      -0.043042
 **** Fit      -0.044799
 **** Fit      -0.047348
 **** Fit      -0.050854
 **** Fit      -0.046016
 **** Fit      -0.043900
 **** Fit      -0.042436
 **** Fit      -0.041542
 **** Fit      -0.041180
 **** Fit      -0.041346
 **** Fit      -0.042072
 **** Fit      -0.043420
 **** Fit      -0.045497
 **** Fit      -0.048470
 **** Fit      -0.052611
 **** Fit      -0.041047
 **** Fit      -0.040766
 **** Fit      -0.041002
 **** Fit      -0.041785
 **** Fit      -0.043193
 **** Fit      -0.045359
 **** Fit      -0.048502
 **** Fit      -0.052992
 **** Fit      -0.040304
 **** Fit      -0.041143
 **** Fit      -0.042531
 **** Fit      -0.044630
 **** Fit      -0.047688
 **** Fit      -0.052125
 **** Fit      -0.041671
 **** Fit      -0.043730
 **** Fit      -0.046579
 **** Fit      -0.044203
 **** Fit      -0.082496
 **** Fit      -0.074427
 **** Fit      -0.079862
 **** Fit      -0.085321
 **** Fit      -0.056395
 **** Fit      -0.062495
 **** Fit      -0.068424
 **** Fit      -0.073993
 **** Fit      -0.079430
 **** Fit      -0.085000
 **** Fit      -0.056919
 **** Fit      -0.053558
 **** Fit      -0.052865
 **** Fit      -0.055056
 **** Fit      -0.059190
 **** Fit      -0.064155
 **** Fit      -0.069312
 **** Fit      -0.074492
 **** Fit      -0.079752
 **** Fit      -0.085135
 **** Fit      -0.076036
 **** Fit      -0.071598
 **** Fit      -0.062428
 **** Fit      -0.058865
 **** Fit      -0.056916
 **** Fit      -0.057253
 **** Fit      -0.059746
 **** Fit      -0.063659
 **** Fit      -0.068293
 **** Fit      -0.073274
 **** Fit      -0.078468
 **** Fit      -0.083766
 **** Fit      -0.080326
 **** Fit      -0.075688
 **** Fit      -0.071191
 **** Fit      -0.066722
 **** Fit      -0.064109
 **** Fit      -0.061479
 **** Fit      -0.060522
 **** Fit      -0.061559
 **** Fit      -0.064325
 **** Fit      -0.068254
 **** Fit      -0.072864
 **** Fit      -0.077849
 **** Fit      -0.082960
 **** Fit      -0.081298
 **** Fit      -0.076481
 **** Fit      -0.071969
 **** Fit      -0.067775
 **** Fit      -0.066440
 **** Fit      -0.064473
 **** Fit      -0.064429
 **** Fit      -0.066380
 **** Fit      -0.069894
 **** Fit      -0.074389
 **** Fit      -0.079358
 **** Fit      -0.084347
 **** Fit      -0.083766
 **** Fit      -0.078762
 **** Fit      -0.074028
 **** Fit      -0.069808
 **** Fit      -0.069323
 **** Fit      -0.067996
 **** Fit      -0.069388
 **** Fit      -0.073073
 **** Fit      -0.078003
 **** Fit      -0.083005
 **** Fit      -0.086880
 **** Fit      -0.082613
 **** Fit      -0.077596
 **** Fit      -0.072840
 **** Fit      -0.072764
 **** Fit      -0.072838
 **** Fit      -0.077158
 **** Fit      -0.081504
 **** Fit      -0.081385
 **** Fit      -0.076950
 **** Fit      -0.076807
 **** Fit      -0.119593
 **** Fit      -0.129004
 **** Fit      -0.107392
 **** Fit      -0.113446
 **** Fit      -0.121716
 **** Fit      -0.133061
 **** Fit      -0.096440
 **** Fit      -0.100267
 **** Fit      -0.105249
 **** Fit      -0.111876
 **** Fit      -0.120760
 **** Fit      -0.132739
 **** Fit      -0.088619
 **** Fit      -0.091670
 **** Fit      -0.095250
 **** Fit      -0.099749
 **** Fit      -0.105600
 **** Fit      -0.113303
 **** Fit      -0.123481
 **** Fit      -0.088181
 **** Fit      -0.091363
 **** Fit      -0.095325
 **** Fit      -0.100394
 **** Fit      -0.106951
 **** Fit      -0.115429
 **** Fit      -0.126299
 **** Fit      -0.084946
 **** Fit      -0.087043
 **** Fit      -0.090006
 **** Fit      -0.093941
 **** Fit      -0.099102
 **** Fit      -0.105810
 **** Fit      -0.114392
 **** Fit      -0.125062
 **** Fit      -0.086059
 **** Fit      -0.087234
 **** Fit      -0.089700
 **** Fit      -0.093411
 **** Fit      -0.098497
 **** Fit      -0.105152
 **** Fit      -0.113476
 **** Fit      -0.123237
 **** Fit      -0.133230
 **** Fit      -0.090549
 **** Fit      -0.088771
 **** Fit      -0.088937
 **** Fit      -0.090949
 **** Fit      -0.094691
 **** Fit      -0.100152
 **** Fit      -0.107251
 **** Fit      -0.115488
 **** Fit      -0.123549
 **** Fit      -0.129269
 **** Fit      -0.130639
 **** Fit      -0.127461
 **** Fit      -0.121546
 **** Fit      -0.115000
 **** Fit      -0.093151
 **** Fit      -0.091936
 **** Fit      -0.093603
 **** Fit      -0.098025
 **** Fit      -0.104656
 **** Fit      -0.112010
 **** Fit      -0.117260
 **** Fit      -0.117771
 **** Fit      -0.113802
 **** Fit      -0.107886
 **** Fit      -0.101956
 **** Fit      -0.096801
 **** Fit      -0.096753
 **** Fit      -0.097168
 **** Fit      -0.102785
 **** Fit      -0.108332
 **** Fit      -0.107200
 **** Fit      -0.101384
 **** Fit      -0.101680
 **** Fit      -0.096329
 **** Fit      -0.093557
 **** Fit      -0.097468
 **** Fit      -0.100740
 **** Fit      -0.100290
 **** Fit      -0.096132
 **** Fit      -0.092774
 **** Fit      -0.103262
 **** Fit      -0.106089
 **** Fit      -0.107279
 **** Fit      -0.105786
 **** Fit      -0.101781
 **** Fit      -0.096828
 **** Fit      -0.092588
 **** Fit      -0.090028
 **** Fit      -0.089635
 **** Fit      -0.112488
 **** Fit      -0.114746
 **** Fit      -0.115240
 **** Fit      -0.113271
 **** Fit      -0.109094
 **** Fit      -0.103751
 **** Fit      -0.098394
 **** Fit      -0.093806
 **** Fit      -0.090341
 **** Fit      -0.088084
 **** Fit      -0.087102
 **** Fit      -0.121304
 **** Fit      -0.124538
 **** Fit      -0.126085
 **** Fit      -0.124990
 **** Fit      -0.121167
 **** Fit      -0.115434
 **** Fit      -0.108962
 **** Fit      -0.102733
 **** Fit      -0.097331
 **** Fit      -0.092984
 **** Fit      -0.089685
 **** Fit      -0.087305
 **** Fit      -0.134267
 **** Fit      -0.126913
 **** Fit      -0.118797
 **** Fit      -0.110985
 **** Fit      -0.104117
 **** Fit      -0.098443
 **** Fit      -0.093958
 **** Fit      -0.090522
 **** Fit      -0.087912
 **** Fit      -0.131831
 **** Fit      -0.121929
 **** Fit      -0.113252
 **** Fit      -0.106031
 **** Fit      -0.100237
 **** Fit      -0.095713
 **** Fit      -0.092244
 **** Fit      -0.089578
 **** Fit      -0.122392
 **** Fit      -0.113277
 **** Fit      -0.106093
 **** Fit      -0.100557
 **** Fit      -0.096372
 **** Fit      -0.093246
 **** Fit      -0.122281
 **** Fit      -0.113441
 **** Fit      -0.106719
 **** Fit      -0.101695
 **** Fit      -0.098019
 **** Fit      -0.125534
 **** Fit      -0.116421
 **** Fit      -0.109689
 **** Fit      -0.104815
 **** Fit      -0.125091
 **** Fit      -0.116744
 **** Fit      -0.075149
 **** Fit      -0.072908
 **** Fit      -0.076057
 **** Fit      -0.078741
 **** Fit      -0.078120
 **** Fit      -0.074790
 **** Fit      -0.072242
 **** Fit      -0.071409
 **** Fit      -0.074163
 **** Fit      -0.077533
 **** Fit      -0.080819
 **** Fit      -0.083100
 **** Fit      -0.083518
 **** Fit      -0.081831
 **** Fit      -0.078644
 **** Fit      -0.074972
 **** Fit      -0.071805
 **** Fit      -0.069947
 **** Fit      -0.069843
 **** Fit      -0.070711
 **** Fit      -0.073271
 **** Fit      -0.076283
 **** Fit      -0.079607
 **** Fit      -0.083007
 **** Fit      -0.086082
 **** Fit      -0.088500
 **** Fit      -0.086285
 **** Fit      -0.083073
 **** Fit      -0.079398
 **** Fit      -0.075695
 **** Fit      -0.072358
 **** Fit      -0.069752
 **** Fit      -0.068189
 **** Fit      -0.067876
 **** Fit      -0.068804
 **** Fit      -0.070965
 **** Fit      -0.073563
 **** Fit      -0.076390
 **** Fit      -0.079500
 **** Fit      -0.082904
 **** Fit      -0.086014
 **** Fit      -0.082127
 **** Fit      -0.078232
 **** Fit      -0.074548
 **** Fit      -0.071309
 **** Fit      -0.068742
 **** Fit      -0.067066
 **** Fit      -0.066479
 **** Fit      -0.067070
 **** Fit      -0.068689
 **** Fit      -0.077943
 **** Fit      -0.080777
 **** Fit      -0.082886
 **** Fit      -0.078812
 **** Fit      -0.074963
 **** Fit      -0.071530
 **** Fit      -0.068683
 **** Fit      -0.066613
 **** Fit      -0.065551
 **** Fit      -0.065724
 **** Fit      -0.084082
 **** Fit      -0.079871
 **** Fit      -0.075877
 **** Fit      -0.072254
 **** Fit      -0.069123
 **** Fit      -0.066630
 **** Fit      -0.065013
 **** Fit      -0.064608
 **** Fit      -0.084356
 **** Fit      -0.079794
 **** Fit      -0.075535
 **** Fit      -0.071671
 **** Fit      -0.068280
 **** Fit      -0.065522
 **** Fit      -0.084759
 **** Fit      -0.079910
 **** Fit      -0.075390
 **** Fit      -0.071195
 **** Fit      -0.081666
 **** Fit      -0.076629
 **** Fit      -0.150338
 **** Fit      -0.153411
 **** Fit      -0.157248
 **** Fit      -0.143613
 **** Fit      -0.144492
 **** Fit      -0.145869
 **** Fit      -0.147694
 **** Fit      -0.149969
 **** Fit      -0.152730
 **** Fit      -0.156047
 **** Fit      -0.160026
 **** Fit      -0.164826
 **** Fit      -0.170675
 **** Fit      -0.142026
 **** Fit      -0.142507
 **** Fit      -0.143404
 **** Fit      -0.144646
 **** Fit      -0.146212
 **** Fit      -0.148105
 **** Fit      -0.150347
 **** Fit      -0.152971
 **** Fit      -0.156027
 **** Fit      -0.159582
 **** Fit      -0.163730
 **** Fit      -0.168600
 **** Fit      -0.140580
 **** Fit      -0.141118
 **** Fit      -0.141950
 **** Fit      -0.143033
 **** Fit      -0.144361
 **** Fit      -0.145941
 **** Fit      -0.147791
 **** Fit      -0.149927
 **** Fit      -0.152370
 **** Fit      -0.155148
 **** Fit      -0.158295
 **** Fit      -0.161857
 **** Fit      -0.165890
 **** Fit      -0.170451
 **** Fit      -0.138930
 **** Fit      -0.139705
 **** Fit      -0.140595
 **** Fit      -0.141614
 **** Fit      -0.142790
 **** Fit      -0.144145
 **** Fit      -0.145702
 **** Fit      -0.147474
 **** Fit      -0.149472
 **** Fit      -0.151701
 **** Fit      -0.154169
 **** Fit      -0.156879
 **** Fit      -0.159840
 **** Fit      -0.163051
 **** Fit      -0.166502
 **** Fit      -0.170145
 **** Fit      -0.137285
 **** Fit      -0.138444
 **** Fit      -0.139510
 **** Fit      -0.140582
 **** Fit      -0.141729
 **** Fit      -0.142997
 **** Fit      -0.144417
 **** Fit      -0.146007
 **** Fit      -0.147770
 **** Fit      -0.149705
 **** Fit      -0.151803
 **** Fit      -0.154048
 **** Fit      -0.156422
 **** Fit      -0.158898
 **** Fit      -0.161433
 **** Fit      -0.163959
 **** Fit      -0.166365
 **** Fit      -0.168484
 **** Fit      -0.136068
 **** Fit      -0.137547
 **** Fit      -0.138778
 **** Fit      -0.139927
 **** Fit      -0.141098
 **** Fit      -0.142352
 **** Fit      -0.143727
 **** Fit      -0.145236
 **** Fit      -0.146881
 **** Fit      -0.148648
 **** Fit      -0.150516
 **** Fit      -0.152455
 **** Fit      -0.154425
 **** Fit      -0.156378
 **** Fit      -0.158249
 **** Fit      -0.159947
 **** Fit      -0.161353
 **** Fit      -0.162316
 **** Fit      -0.162662
 **** Fit      -0.135252
 **** Fit      -0.136884
 **** Fit      -0.138196
 **** Fit      -0.139379
 **** Fit      -0.140548
 **** Fit      -0.141771
 **** Fit      -0.143084
 **** Fit      -0.144497
 **** Fit      -0.146005
 **** Fit      -0.147587
 **** Fit      -0.149211
 **** Fit      -0.150837
 **** Fit      -0.152412
 **** Fit      -0.153878
 **** Fit      -0.155160
 **** Fit      -0.156169
 **** Fit      -0.156805
 **** Fit      -0.156956
 **** Fit      -0.156527
 **** Fit      -0.155456
 **** Fit      -0.133564
 **** Fit      -0.135602
 **** Fit      -0.137129
 **** Fit      -0.138415
 **** Fit      -0.139618
 **** Fit      -0.140832
 **** Fit      -0.142105
 **** Fit      -0.143452
 **** Fit      -0.144865
 **** Fit      -0.146315
 **** Fit      -0.147761
 **** Fit      -0.149148
 **** Fit      -0.150414
 **** Fit      -0.151485
 **** Fit      -0.152284
 **** Fit      -0.152724
 **** Fit      -0.152725
 **** Fit      -0.152226
 **** Fit      -0.151207
 **** Fit      -0.149714
 **** Fit      -0.147881
 **** Fit      -0.134903
 **** Fit      -0.136554
 **** Fit      -0.137918
 **** Fit      -0.139170
 **** Fit      -0.140412
 **** Fit      -0.141692
 **** Fit      -0.143018
 **** Fit      -0.144367
 **** Fit      -0.145693
 **** Fit      -0.146934
 **** Fit      -0.148016
 **** Fit      -0.148860
 **** Fit      -0.149384
 **** Fit      -0.149514
 **** Fit      -0.149197
 **** Fit      -0.148416
 **** Fit      -0.147219
 **** Fit      -0.145724
 **** Fit      -0.144118
 **** Fit      -0.142622
 **** Fit      -0.141415
 **** Fit      -0.140547
 **** Fit      -0.134543
 **** Fit      -0.136208
 **** Fit      -0.137597
 **** Fit      -0.138867
 **** Fit      -0.140112
 **** Fit      -0.141370
 **** Fit      -0.142632
 **** Fit      -0.143855
 **** Fit      -0.144971
 **** Fit      -0.145899
 **** Fit      -0.146553
 **** Fit      -0.146855
 **** Fit      -0.146747
 **** Fit      -0.146210
 **** Fit      -0.145282
 **** Fit      -0.144067
 **** Fit      -0.142721
 **** Fit      -0.141413
 **** Fit      -0.140243
 **** Fit      -0.139152
 **** Fit      -0.133081
 **** Fit      -0.134911
 **** Fit      -0.136463
 **** Fit      -0.137828
 **** Fit      -0.139109
 **** Fit      -0.140362
 **** Fit      -0.141582
 **** Fit      -0.142712
 **** Fit      -0.143663
 **** Fit      -0.144334
 **** Fit      -0.144632
 **** Fit      -0.144499
 **** Fit      -0.143933
 **** Fit      -0.143005
 **** Fit      -0.141848
 **** Fit      -0.140610
 **** Fit      -0.139364
 **** Fit      -0.138018
 **** Fit      -0.133035
 **** Fit      -0.134331
 **** Fit      -0.135846
 **** Fit      -0.137293
 **** Fit      -0.138656
 **** Fit      -0.139950
 **** Fit      -0.141127
 **** Fit      -0.142068
 **** Fit      -0.142629
 **** Fit      -0.142695
 **** Fit      -0.142238
 **** Fit      -0.141342
 **** Fit      -0.140166
 **** Fit      -0.138830
 **** Fit      -0.137303
 **** Fit      -0.135486
 **** Fit      -0.135420
 **** Fit      -0.134906
 **** Fit      -0.135605
 **** Fit      -0.136917
 **** Fit      -0.138339
 **** Fit      -0.139654
 **** Fit      -0.140646
 **** Fit      -0.141060
 **** Fit      -0.140751
 **** Fit      -0.139805
 **** Fit      -0.138449
 **** Fit      -0.136867
 **** Fit      -0.136849
 **** Fit      -0.136864
 **** Fit      -0.138159
 **** Fit      -0.139351
 **** Fit      -0.139396
 **** Fit      -0.138212
 **** Fit      -0.138116
 -----------------------------------------------------------------
 Leave Link  602 at Thu Sep 24 08:54:58 2015, MaxMem=    6291456 cpu:      18.2

 Test job not archived.
 1\1\GINC-COMPUTE-1-2\FOpt\RHF\6-31G(d)\C27H27N2O3(1-)\SHUNZHOU\24-Sep-
 2015\0\\#HF/6-31G* SCF=tight Test Pop=MK iop(6/33=2) iop(6/42=6) opt\\
 remark line goes here\\-1,1\C,15.0701758622,8.0070800685,8.324431365\C
 ,15.8216892391,6.9642496075,9.1552159086\C,14.9176115219,6.0544144788,
 9.9967238\C,13.9607430436,5.160024764,9.1997998749\C,14.6877113386,4.1
 982280025,8.2378898614\C,13.9441643832,2.8628937469,8.0879773298\N,14.
 5693804491,2.0792665076,7.0510137459\C,13.9520709347,1.0146956243,6.39
 72706874\C,14.7258490569,0.2199025324,5.5455994215\C,14.1604017367,-0.
 8228091843,4.8418294015\C,12.8059667293,-1.1036592214,4.9541467905\C,1
 2.0382652174,-0.3220611418,5.7962267752\C,12.5953643895,0.7234419458,6
 .517247959\C,13.909800584,2.244300348,9.4776911406\C,14.3498671258,0.9
 716675411,9.7926634646\C,14.3945176616,0.5187738672,11.1137976429\C,14
 .0038753899,1.4031785613,12.1153589626\C,13.5760348932,2.6852533859,11
 .8145634249\C,13.5009160857,3.100339464,10.4973704651\N,13.0818643473,
 4.4053460732,10.1140391242\C,11.8879867275,4.9703142787,10.4538988011\
 C,10.8671337338,4.132996796,11.199949398\O,11.6246737973,6.1085575126,
 10.1579454404\C,14.8691957602,-0.8529969167,11.4435439976\C,15.9799243
 488,-1.4017645251,10.805636205\C,16.4264022367,-2.672154647,11.1269072
 522\C,15.7811242233,-3.4379823854,12.0897287687\C,14.6709563932,-2.892
 6575583,12.7222881772\C,14.2209428461,-1.6215921769,12.4084653856\C,16
 .2866818717,-4.8573741641,12.4496015774\O,15.6315087017,-5.4348309581,
 13.3166767938\H,13.2969938364,5.7826863193,8.6222626441\H,12.933834461
 1,3.0873236156,7.7659822932\H,15.7659687595,8.6811321771,7.8331121327\
 H,14.4609062213,7.5502249832,7.5512776639\H,14.4117585356,8.6030355082
 ,8.9492596958\H,16.4976479945,7.4799031435,9.8330018156\H,16.454158710
 8,6.3679524587,8.5021716295\H,14.3191541058,6.6689494957,10.6614333496
 \H,15.5376671494,5.4172838031,10.6233265496\H,14.7912639784,4.66706271
 41,7.2657917938\H,15.6901347602,3.9853180357,8.6010399365\H,15.5487765
 9,1.9479737642,7.183987229\H,15.7764913055,0.4304423733,5.4402501158\H
 ,14.7834799924,-1.4217428509,4.2010021331\H,12.3673649628,-1.919216828
 6,4.40862488\H,10.98885008,-0.5294909097,5.912534212\H,11.9707472886,1
 .2875014566,7.182404886\H,14.6449397821,0.3028981824,9.0070477218\H,14
 .0698878142,1.0979786717,13.1432626542\H,13.3195063537,3.3647955458,12
 .6070691333\H,9.8976590299,4.5642020565,10.9937759837\H,10.8810945652,
 3.0904563153,10.9152977667\H,11.0415550836,4.1918308205,12.2682848405\
 H,16.5137555389,-0.8206989704,10.0721393434\H,17.287648858,-3.09462453
 04,10.6455043257\H,14.1699690687,-3.4912256367,13.4590007621\H,13.3450
 043616,-1.2307540503,12.8990404477\O,17.2799801816,-5.2262398908,11.82
 3615118\\Version=AM64L-G03RevD.02\State=1-A\HF=-1371.7302859\RMSD=6.82
 0e-09\RMSF=3.028e-06\Thermal=0.\Dipole=-2.7787357,9.6729978,-4.471025\
 PG=C01 [X(C27H27N2O3)]\\@


 THE CAUTIOUS SELDOM ERR...CONFUCIUS                   
 Job cpu time:  0 days 14 hours 41 minutes  5.8 seconds.
 File lengths (MBytes):  RWF=    188 Int=      0 D2E=      0 Chk=     26 Scr=      1
 Normal termination of Gaussian 03 at Thu Sep 24 08:54:58 2015.
