 Entering Gaussian System, Link 0=g03
 Initial command:
 /share/apps//g03/l1.exe /state/partition1/mmpbsa.MC6566/Gau-6591.inp -scrdir=/state/partition1/mmpbsa.MC6566/
 Entering Link 1 = /share/apps//g03/l1.exe PID=      6592.
  
 Copyright (c) 1988,1990,1992,1993,1995,1998,2003,2004, Gaussian, Inc.
                  All Rights Reserved.
  
 This is the Gaussian(R) 03 program.  It is based on the
 the Gaussian(R) 98 system (copyright 1998, Gaussian, Inc.),
 the Gaussian(R) 94 system (copyright 1995, Gaussian, Inc.),
 the Gaussian 92(TM) system (copyright 1992, Gaussian, Inc.),
 the Gaussian 90(TM) system (copyright 1990, Gaussian, Inc.),
 the Gaussian 88(TM) system (copyright 1988, Gaussian, Inc.),
 the Gaussian 86(TM) system (copyright 1986, Carnegie Mellon
 University), and the Gaussian 82(TM) system (copyright 1983,
 Carnegie Mellon University). Gaussian is a federally registered
 trademark of Gaussian, Inc.
  
 This software contains proprietary and confidential information,
 including trade secrets, belonging to Gaussian, Inc.
  
 This software is provided under written license and may be
 used, copied, transmitted, or stored only in accord with that
 written license.
  
 The following legend is applicable only to US Government
 contracts under FAR:
  
                    RESTRICTED RIGHTS LEGEND
  
 Use, reproduction and disclosure by the US Government is
 subject to restrictions as set forth in subparagraphs (a)
 and (c) of the Commercial Computer Software - Restricted
 Rights clause in FAR 52.227-19.
  
 Gaussian, Inc.
 340 Quinnipiac St., Bldg. 40, Wallingford CT 06492
  
  
 ---------------------------------------------------------------
 Warning -- This program may not be used in any manner that
 competes with the business of Gaussian, Inc. or will provide
 assistance to any competitor of Gaussian, Inc.  The licensee
 of this program is prohibited from giving any competitor of
 Gaussian, Inc. access to this program.  By using this program,
 the user acknowledges that Gaussian, Inc. is engaged in the
 business of creating and licensing software in the field of
 computational chemistry and represents and warrants to the
 licensee that it is not a competitor of Gaussian, Inc. and that
 it will not use this program in any manner prohibited above.
 ---------------------------------------------------------------
  

 Cite this work as:
 Gaussian 03, Revision D.02,
 M. J. Frisch, G. W. Trucks, H. B. Schlegel, G. E. Scuseria, 
 M. A. Robb, J. R. Cheeseman, J. A. Montgomery, Jr., T. Vreven, 
 K. N. Kudin, J. C. Burant, J. M. Millam, S. S. Iyengar, J. Tomasi, 
 V. Barone, B. Mennucci, M. Cossi, G. Scalmani, N. Rega, 
 G. A. Petersson, H. Nakatsuji, M. Hada, M. Ehara, K. Toyota, 
 R. Fukuda, J. Hasegawa, M. Ishida, T. Nakajima, Y. Honda, O. Kitao, 
 H. Nakai, M. Klene, X. Li, J. E. Knox, H. P. Hratchian, J. B. Cross, 
 V. Bakken, C. Adamo, J. Jaramillo, R. Gomperts, R. E. Stratmann, 
 O. Yazyev, A. J. Austin, R. Cammi, C. Pomelli, J. W. Ochterski, 
 P. Y. Ayala, K. Morokuma, G. A. Voth, P. Salvador, J. J. Dannenberg, 
 V. G. Zakrzewski, S. Dapprich, A. D. Daniels, M. C. Strain, 
 O. Farkas, D. K. Malick, A. D. Rabuck, K. Raghavachari, 
 J. B. Foresman, J. V. Ortiz, Q. Cui, A. G. Baboul, S. Clifford, 
 J. Cioslowski, B. B. Stefanov, G. Liu, A. Liashenko, P. Piskorz, 
 I. Komaromi, R. L. Martin, D. J. Fox, T. Keith, M. A. Al-Laham, 
 C. Y. Peng, A. Nanayakkara, M. Challacombe, P. M. W. Gill, 
 B. Johnson, W. Chen, M. W. Wong, C. Gonzalez, and J. A. Pople, 
 Gaussian, Inc., Wallingford CT, 2004.
 
 ******************************************
 Gaussian 03:  AM64L-G03RevD.02  1-Mar-2006
                23-Sep-2015 
 ******************************************
 %chk=molecule
 ------------------------------------------------------------
 #HF/6-31G* SCF=tight Test Pop=MK iop(6/33=2) iop(6/42=6) opt
 ------------------------------------------------------------
 1/18=20,38=1/1,3;
 2/9=110,17=6,18=5,40=1/2;
 3/5=1,6=6,7=1,11=9,16=1,25=1,30=1/1,2,3;
 4//1;
 5/5=2,32=2,38=5/2;
 6/7=2,8=2,9=2,10=2,15=8,20=1,28=1,33=2,42=6/1,2;
 7//1,2,3,16;
 1/18=20/3(3);
 2/9=110/2;
 6/7=2,8=2,9=2,10=2,15=8,19=2,20=1,28=1,33=2,42=6/1,2;
 99//99;
 2/9=110/2;
 3/5=1,6=6,7=1,11=9,16=1,25=1,30=1/1,2,3;
 4/5=5,16=3/1;
 5/5=2,32=2,38=5/2;
 7//1,2,3,16;
 1/18=20/3(-5);
 2/9=110/2;
 6/7=2,8=2,9=2,10=2,15=8,19=2,20=1,28=1,33=2,42=6/1,2;
 99/9=1/99;
 ---------------------
 remark line goes here
 ---------------------
 Symbolic Z-matrix:
 Charge =  0 Multiplicity = 1
 C                     14.909    6.239     9.862 
 C                     13.963    5.207     9.218 
 C                     14.74     4.269     8.257 
 C                     14.081    2.891     8.118 
 N                     14.771    2.084     7.114 
 C                     14.152    1.022     6.438 
 C                     12.847    0.568     6.747 
 C                     12.277   -0.505     6.033 
 C                     13.002   -1.134     5.004 
 C                     14.3     -0.689     4.692 
 C                     14.871    0.382     5.407 
 C                     14.       2.294     9.52 
 C                     14.396    0.967     9.808 
 C                     14.365    0.486     11.13 
 C                     13.96     1.334     12.176 
 C                     13.569    2.657     11.899 
 C                     13.558    3.139     10.567 
 N                     13.173    4.486     10.251 
 C                     12.017    5.055     10.703 
 C                     10.981    4.219     11.461 
 O                     11.729    6.239     10.495 
 H                     13.263    5.749     8.578 
 H                     13.059    3.059     7.771 
 H                     15.469    6.786     9.102 
 H                     14.362    6.975     10.452 
 H                     15.63     5.757     10.523 
 H                     14.838    4.751     7.283 
 H                     15.757    4.13      8.629 
 H                     15.702    2.376     6.832 
 H                     12.264    1.019     7.537 
 H                     11.281   -0.846     6.279 
 H                     12.564   -1.957     4.456 
 H                     14.862   -1.17      3.903 
 H                     15.869    0.708     5.151 
 H                     14.741    0.31      9.023 
 H                     14.671   -0.529     11.343 
 H                     13.957    0.972     13.195 
 H                     13.29     3.299     12.723 
 H                     11.216    4.181     12.523 
 H                     9.992     4.666     11.36 
 H                     10.916    3.204     11.07 
 

 GradGradGradGradGradGradGradGradGradGradGradGradGradGradGradGradGradGrad
 Berny optimization.
 Initialization pass.
                           ----------------------------
                           !    Initial Parameters    !
                           ! (Angstroms and Degrees)  !
 --------------------------                            --------------------------
 ! Name  Definition              Value          Derivative Info.                !
 --------------------------------------------------------------------------------
 ! R1    R(1,2)                  1.541          estimate D2E/DX2                !
 ! R2    R(1,24)                 1.0911         estimate D2E/DX2                !
 ! R3    R(1,25)                 1.0904         estimate D2E/DX2                !
 ! R4    R(1,26)                 1.0905         estimate D2E/DX2                !
 ! R5    R(2,3)                  1.5515         estimate D2E/DX2                !
 ! R6    R(2,18)                 1.487          estimate D2E/DX2                !
 ! R7    R(2,22)                 1.0924         estimate D2E/DX2                !
 ! R8    R(3,4)                  1.5338         estimate D2E/DX2                !
 ! R9    R(3,27)                 1.0911         estimate D2E/DX2                !
 ! R10   R(3,28)                 1.0918         estimate D2E/DX2                !
 ! R11   R(4,5)                  1.4613         estimate D2E/DX2                !
 ! R12   R(4,12)                 1.526          estimate D2E/DX2                !
 ! R13   R(4,23)                 1.0923         estimate D2E/DX2                !
 ! R14   R(5,6)                  1.4028         estimate D2E/DX2                !
 ! R15   R(5,29)                 1.0157         estimate D2E/DX2                !
 ! R16   R(6,7)                  1.4158         estimate D2E/DX2                !
 ! R17   R(6,11)                 1.4105         estimate D2E/DX2                !
 ! R18   R(7,8)                  1.4093         estimate D2E/DX2                !
 ! R19   R(7,30)                 1.0805         estimate D2E/DX2                !
 ! R20   R(8,9)                  1.4072         estimate D2E/DX2                !
 ! R21   R(8,31)                 1.0811         estimate D2E/DX2                !
 ! R22   R(9,10)                 1.4072         estimate D2E/DX2                !
 ! R23   R(9,32)                 1.0814         estimate D2E/DX2                !
 ! R24   R(10,11)                1.4087         estimate D2E/DX2                !
 ! R25   R(10,33)                1.0815         estimate D2E/DX2                !
 ! R26   R(11,34)                1.0807         estimate D2E/DX2                !
 ! R27   R(12,13)                1.4145         estimate D2E/DX2                !
 ! R28   R(12,17)                1.4162         estimate D2E/DX2                !
 ! R29   R(13,14)                1.4071         estimate D2E/DX2                !
 ! R30   R(13,35)                1.0802         estimate D2E/DX2                !
 ! R31   R(14,15)                1.4061         estimate D2E/DX2                !
 ! R32   R(14,36)                1.0813         estimate D2E/DX2                !
 ! R33   R(15,16)                1.4071         estimate D2E/DX2                !
 ! R34   R(15,37)                1.0814         estimate D2E/DX2                !
 ! R35   R(16,17)                1.4166         estimate D2E/DX2                !
 ! R36   R(16,38)                1.0812         estimate D2E/DX2                !
 ! R37   R(17,18)                1.4361         estimate D2E/DX2                !
 ! R38   R(18,19)                1.3654         estimate D2E/DX2                !
 ! R39   R(19,20)                1.5319         estimate D2E/DX2                !
 ! R40   R(19,21)                1.2361         estimate D2E/DX2                !
 ! R41   R(20,39)                1.0884         estimate D2E/DX2                !
 ! R42   R(20,40)                1.09           estimate D2E/DX2                !
 ! R43   R(20,41)                1.0896         estimate D2E/DX2                !
 ! A1    A(2,1,24)             111.0837         estimate D2E/DX2                !
 ! A2    A(2,1,25)             111.7277         estimate D2E/DX2                !
 ! A3    A(2,1,26)             111.2972         estimate D2E/DX2                !
 ! A4    A(24,1,25)            107.2162         estimate D2E/DX2                !
 ! A5    A(24,1,26)            107.7269         estimate D2E/DX2                !
 ! A6    A(25,1,26)            107.5807         estimate D2E/DX2                !
 ! A7    A(1,2,3)              110.8733         estimate D2E/DX2                !
 ! A8    A(1,2,18)             111.1339         estimate D2E/DX2                !
 ! A9    A(1,2,22)             107.8145         estimate D2E/DX2                !
 ! A10   A(3,2,18)             113.7803         estimate D2E/DX2                !
 ! A11   A(3,2,22)             104.9508         estimate D2E/DX2                !
 ! A12   A(18,2,22)            107.8867         estimate D2E/DX2                !
 ! A13   A(2,3,4)              112.59           estimate D2E/DX2                !
 ! A14   A(2,3,27)             109.3186         estimate D2E/DX2                !
 ! A15   A(2,3,28)             109.4164         estimate D2E/DX2                !
 ! A16   A(4,3,27)             110.7667         estimate D2E/DX2                !
 ! A17   A(4,3,28)             108.4648         estimate D2E/DX2                !
 ! A18   A(27,3,28)            106.0647         estimate D2E/DX2                !
 ! A19   A(3,4,5)              110.8271         estimate D2E/DX2                !
 ! A20   A(3,4,12)             106.9199         estimate D2E/DX2                !
 ! A21   A(3,4,23)             107.0144         estimate D2E/DX2                !
 ! A22   A(5,4,12)             116.1203         estimate D2E/DX2                !
 ! A23   A(5,4,23)             107.967          estimate D2E/DX2                !
 ! A24   A(12,4,23)            107.6005         estimate D2E/DX2                !
 ! A25   A(4,5,6)              122.7383         estimate D2E/DX2                !
 ! A26   A(4,5,29)             117.6988         estimate D2E/DX2                !
 ! A27   A(6,5,29)             119.2302         estimate D2E/DX2                !
 ! A28   A(5,6,7)              122.9755         estimate D2E/DX2                !
 ! A29   A(5,6,11)             118.086          estimate D2E/DX2                !
 ! A30   A(7,6,11)             118.9384         estimate D2E/DX2                !
 ! A31   A(6,7,8)              120.4225         estimate D2E/DX2                !
 ! A32   A(6,7,30)             121.5383         estimate D2E/DX2                !
 ! A33   A(8,7,30)             118.0355         estimate D2E/DX2                !
 ! A34   A(7,8,9)              120.1616         estimate D2E/DX2                !
 ! A35   A(7,8,31)             119.8342         estimate D2E/DX2                !
 ! A36   A(9,8,31)             120.004          estimate D2E/DX2                !
 ! A37   A(8,9,10)             119.7372         estimate D2E/DX2                !
 ! A38   A(8,9,32)             120.1366         estimate D2E/DX2                !
 ! A39   A(10,9,32)            120.1262         estimate D2E/DX2                !
 ! A40   A(9,10,11)            120.1187         estimate D2E/DX2                !
 ! A41   A(9,10,33)            120.0276         estimate D2E/DX2                !
 ! A42   A(11,10,33)           119.8536         estimate D2E/DX2                !
 ! A43   A(6,11,10)            120.6213         estimate D2E/DX2                !
 ! A44   A(6,11,34)            120.4665         estimate D2E/DX2                !
 ! A45   A(10,11,34)           118.9119         estimate D2E/DX2                !
 ! A46   A(4,12,13)            122.6324         estimate D2E/DX2                !
 ! A47   A(4,12,17)            117.5408         estimate D2E/DX2                !
 ! A48   A(13,12,17)           119.777          estimate D2E/DX2                !
 ! A49   A(12,13,14)           120.3859         estimate D2E/DX2                !
 ! A50   A(12,13,35)           120.8003         estimate D2E/DX2                !
 ! A51   A(14,13,35)           118.8074         estimate D2E/DX2                !
 ! A52   A(13,14,15)           119.9387         estimate D2E/DX2                !
 ! A53   A(13,14,36)           119.9802         estimate D2E/DX2                !
 ! A54   A(15,14,36)           120.0702         estimate D2E/DX2                !
 ! A55   A(14,15,16)           120.0408         estimate D2E/DX2                !
 ! A56   A(14,15,37)           119.9919         estimate D2E/DX2                !
 ! A57   A(16,15,37)           119.9652         estimate D2E/DX2                !
 ! A58   A(15,16,17)           120.4765         estimate D2E/DX2                !
 ! A59   A(15,16,38)           118.6836         estimate D2E/DX2                !
 ! A60   A(17,16,38)           120.8356         estimate D2E/DX2                !
 ! A61   A(12,17,16)           119.3225         estimate D2E/DX2                !
 ! A62   A(12,17,18)           118.7268         estimate D2E/DX2                !
 ! A63   A(16,17,18)           121.8785         estimate D2E/DX2                !
 ! A64   A(2,18,17)            117.7245         estimate D2E/DX2                !
 ! A65   A(2,18,19)            118.5359         estimate D2E/DX2                !
 ! A66   A(17,18,19)           123.0231         estimate D2E/DX2                !
 ! A67   A(18,19,20)           120.5929         estimate D2E/DX2                !
 ! A68   A(18,19,21)           122.7302         estimate D2E/DX2                !
 ! A69   A(20,19,21)           116.641          estimate D2E/DX2                !
 ! A70   A(19,20,39)           110.8459         estimate D2E/DX2                !
 ! A71   A(19,20,40)           110.1186         estimate D2E/DX2                !
 ! A72   A(19,20,41)           111.7852         estimate D2E/DX2                !
 ! A73   A(39,20,40)           107.4964         estimate D2E/DX2                !
 ! A74   A(39,20,41)           109.2991         estimate D2E/DX2                !
 ! A75   A(40,20,41)           107.1347         estimate D2E/DX2                !
 ! D1    D(24,1,2,3)            53.9079         estimate D2E/DX2                !
 ! D2    D(24,1,2,18)         -178.4972         estimate D2E/DX2                !
 ! D3    D(24,1,2,22)          -60.4575         estimate D2E/DX2                !
 ! D4    D(25,1,2,3)           173.5853         estimate D2E/DX2                !
 ! D5    D(25,1,2,18)          -58.8198         estimate D2E/DX2                !
 ! D6    D(25,1,2,22)           59.2199         estimate D2E/DX2                !
 ! D7    D(26,1,2,3)           -66.1278         estimate D2E/DX2                !
 ! D8    D(26,1,2,18)           61.4671         estimate D2E/DX2                !
 ! D9    D(26,1,2,22)          179.5068         estimate D2E/DX2                !
 ! D10   D(1,2,3,4)            152.678          estimate D2E/DX2                !
 ! D11   D(1,2,3,27)           -83.7631         estimate D2E/DX2                !
 ! D12   D(1,2,3,28)            31.9891         estimate D2E/DX2                !
 ! D13   D(18,2,3,4)            26.542          estimate D2E/DX2                !
 ! D14   D(18,2,3,27)          150.1009         estimate D2E/DX2                !
 ! D15   D(18,2,3,28)          -94.1469         estimate D2E/DX2                !
 ! D16   D(22,2,3,4)           -91.1719         estimate D2E/DX2                !
 ! D17   D(22,2,3,27)           32.387          estimate D2E/DX2                !
 ! D18   D(22,2,3,28)          148.1392         estimate D2E/DX2                !
 ! D19   D(1,2,18,17)         -104.2951         estimate D2E/DX2                !
 ! D20   D(1,2,18,19)           85.1048         estimate D2E/DX2                !
 ! D21   D(3,2,18,17)           21.7035         estimate D2E/DX2                !
 ! D22   D(3,2,18,19)         -148.8966         estimate D2E/DX2                !
 ! D23   D(22,2,18,17)         137.7089         estimate D2E/DX2                !
 ! D24   D(22,2,18,19)         -32.8912         estimate D2E/DX2                !
 ! D25   D(2,3,4,5)            174.7687         estimate D2E/DX2                !
 ! D26   D(2,3,4,12)           -57.7813         estimate D2E/DX2                !
 ! D27   D(2,3,4,23)            57.2817         estimate D2E/DX2                !
 ! D28   D(27,3,4,5)            52.0186         estimate D2E/DX2                !
 ! D29   D(27,3,4,12)          179.4686         estimate D2E/DX2                !
 ! D30   D(27,3,4,23)          -65.4684         estimate D2E/DX2                !
 ! D31   D(28,3,4,5)           -63.998          estimate D2E/DX2                !
 ! D32   D(28,3,4,12)           63.452          estimate D2E/DX2                !
 ! D33   D(28,3,4,23)          178.515          estimate D2E/DX2                !
 ! D34   D(3,4,5,6)           -156.5246         estimate D2E/DX2                !
 ! D35   D(3,4,5,29)            16.7946         estimate D2E/DX2                !
 ! D36   D(12,4,5,6)            81.245          estimate D2E/DX2                !
 ! D37   D(12,4,5,29)         -105.4358         estimate D2E/DX2                !
 ! D38   D(23,4,5,6)           -39.6218         estimate D2E/DX2                !
 ! D39   D(23,4,5,29)          133.6973         estimate D2E/DX2                !
 ! D40   D(3,4,12,13)         -132.7786         estimate D2E/DX2                !
 ! D41   D(3,4,12,17)           44.6454         estimate D2E/DX2                !
 ! D42   D(5,4,12,13)           -8.5103         estimate D2E/DX2                !
 ! D43   D(5,4,12,17)          168.9137         estimate D2E/DX2                !
 ! D44   D(23,4,12,13)         112.5525         estimate D2E/DX2                !
 ! D45   D(23,4,12,17)         -70.0236         estimate D2E/DX2                !
 ! D46   D(4,5,6,7)             -5.4681         estimate D2E/DX2                !
 ! D47   D(4,5,6,11)           174.6558         estimate D2E/DX2                !
 ! D48   D(29,5,6,7)          -178.6893         estimate D2E/DX2                !
 ! D49   D(29,5,6,11)            1.4346         estimate D2E/DX2                !
 ! D50   D(5,6,7,8)           -179.9734         estimate D2E/DX2                !
 ! D51   D(5,6,7,30)            -0.6905         estimate D2E/DX2                !
 ! D52   D(11,6,7,8)            -0.0983         estimate D2E/DX2                !
 ! D53   D(11,6,7,30)          179.1846         estimate D2E/DX2                !
 ! D54   D(5,6,11,10)         -179.9101         estimate D2E/DX2                !
 ! D55   D(5,6,11,34)           -0.0858         estimate D2E/DX2                !
 ! D56   D(7,6,11,10)            0.2087         estimate D2E/DX2                !
 ! D57   D(7,6,11,34)         -179.9671         estimate D2E/DX2                !
 ! D58   D(6,7,8,9)             -0.0637         estimate D2E/DX2                !
 ! D59   D(6,7,8,31)           179.8044         estimate D2E/DX2                !
 ! D60   D(30,7,8,9)          -179.3713         estimate D2E/DX2                !
 ! D61   D(30,7,8,31)            0.4968         estimate D2E/DX2                !
 ! D62   D(7,8,9,10)             0.1168         estimate D2E/DX2                !
 ! D63   D(7,8,9,32)          -179.9667         estimate D2E/DX2                !
 ! D64   D(31,8,9,10)         -179.7511         estimate D2E/DX2                !
 ! D65   D(31,8,9,32)            0.1654         estimate D2E/DX2                !
 ! D66   D(8,9,10,11)           -0.0071         estimate D2E/DX2                !
 ! D67   D(8,9,10,33)          179.9092         estimate D2E/DX2                !
 ! D68   D(32,9,10,11)        -179.9236         estimate D2E/DX2                !
 ! D69   D(32,9,10,33)          -0.0073         estimate D2E/DX2                !
 ! D70   D(9,10,11,6)           -0.1576         estimate D2E/DX2                !
 ! D71   D(9,10,11,34)        -179.9845         estimate D2E/DX2                !
 ! D72   D(33,10,11,6)         179.926          estimate D2E/DX2                !
 ! D73   D(33,10,11,34)          0.0991         estimate D2E/DX2                !
 ! D74   D(4,12,13,14)         176.7777         estimate D2E/DX2                !
 ! D75   D(4,12,13,35)          -2.294          estimate D2E/DX2                !
 ! D76   D(17,12,13,14)         -0.5907         estimate D2E/DX2                !
 ! D77   D(17,12,13,35)       -179.6624         estimate D2E/DX2                !
 ! D78   D(4,12,17,16)        -175.0369         estimate D2E/DX2                !
 ! D79   D(4,12,17,18)           1.9303         estimate D2E/DX2                !
 ! D80   D(13,12,17,16)          2.4638         estimate D2E/DX2                !
 ! D81   D(13,12,17,18)        179.431          estimate D2E/DX2                !
 ! D82   D(12,13,14,15)         -1.0789         estimate D2E/DX2                !
 ! D83   D(12,13,14,36)       -179.8813         estimate D2E/DX2                !
 ! D84   D(35,13,14,15)        178.0112         estimate D2E/DX2                !
 ! D85   D(35,13,14,36)         -0.7913         estimate D2E/DX2                !
 ! D86   D(13,14,15,16)          0.8464         estimate D2E/DX2                !
 ! D87   D(13,14,15,37)       -178.6319         estimate D2E/DX2                !
 ! D88   D(36,14,15,16)        179.6477         estimate D2E/DX2                !
 ! D89   D(36,14,15,37)          0.1694         estimate D2E/DX2                !
 ! D90   D(14,15,16,17)          1.0593         estimate D2E/DX2                !
 ! D91   D(14,15,16,38)       -178.1919         estimate D2E/DX2                !
 ! D92   D(37,15,16,17)       -179.4623         estimate D2E/DX2                !
 ! D93   D(37,15,16,38)          1.2865         estimate D2E/DX2                !
 ! D94   D(15,16,17,12)         -2.7103         estimate D2E/DX2                !
 ! D95   D(15,16,17,18)       -179.5784         estimate D2E/DX2                !
 ! D96   D(38,16,17,12)        176.5247         estimate D2E/DX2                !
 ! D97   D(38,16,17,18)         -0.3434         estimate D2E/DX2                !
 ! D98   D(12,17,18,2)         -37.7578         estimate D2E/DX2                !
 ! D99   D(12,17,18,19)        132.3886         estimate D2E/DX2                !
 ! D100  D(16,17,18,2)         139.1282         estimate D2E/DX2                !
 ! D101  D(16,17,18,19)        -50.7253         estimate D2E/DX2                !
 ! D102  D(2,18,19,20)         163.3523         estimate D2E/DX2                !
 ! D103  D(2,18,19,21)         -14.3942         estimate D2E/DX2                !
 ! D104  D(17,18,19,20)         -6.7186         estimate D2E/DX2                !
 ! D105  D(17,18,19,21)        175.535          estimate D2E/DX2                !
 ! D106  D(18,19,20,39)         86.0479         estimate D2E/DX2                !
 ! D107  D(18,19,20,40)       -155.1297         estimate D2E/DX2                !
 ! D108  D(18,19,20,41)        -36.1629         estimate D2E/DX2                !
 ! D109  D(21,19,20,39)        -96.073          estimate D2E/DX2                !
 ! D110  D(21,19,20,40)         22.7494         estimate D2E/DX2                !
 ! D111  D(21,19,20,41)        141.7162         estimate D2E/DX2                !
 --------------------------------------------------------------------------------
 Trust Radius=3.00D-01 FncErr=1.00D-07 GrdErr=1.00D-07
 Number of steps in this run= 239 maximum allowed number of steps= 246.
 GradGradGradGradGradGradGradGradGradGradGradGradGradGradGradGradGradGrad

                          Input orientation:                          
 ---------------------------------------------------------------------
 Center     Atomic     Atomic              Coordinates (Angstroms)
 Number     Number      Type              X           Y           Z
 ---------------------------------------------------------------------
    1          6             0       14.909000    6.239000    9.862000
    2          6             0       13.963000    5.207000    9.218000
    3          6             0       14.740000    4.269000    8.257000
    4          6             0       14.081000    2.891000    8.118000
    5          7             0       14.771000    2.084000    7.114000
    6          6             0       14.152000    1.022000    6.438000
    7          6             0       12.847000    0.568000    6.747000
    8          6             0       12.277000   -0.505000    6.033000
    9          6             0       13.002000   -1.134000    5.004000
   10          6             0       14.300000   -0.689000    4.692000
   11          6             0       14.871000    0.382000    5.407000
   12          6             0       14.000000    2.294000    9.520000
   13          6             0       14.396000    0.967000    9.808000
   14          6             0       14.365000    0.486000   11.130000
   15          6             0       13.960000    1.334000   12.176000
   16          6             0       13.569000    2.657000   11.899000
   17          6             0       13.558000    3.139000   10.567000
   18          7             0       13.173000    4.486000   10.251000
   19          6             0       12.017000    5.055000   10.703000
   20          6             0       10.981000    4.219000   11.461000
   21          8             0       11.729000    6.239000   10.495000
   22          1             0       13.263000    5.749000    8.578000
   23          1             0       13.059000    3.059000    7.771000
   24          1             0       15.469000    6.786000    9.102000
   25          1             0       14.362000    6.975000   10.452000
   26          1             0       15.630000    5.757000   10.523000
   27          1             0       14.838000    4.751000    7.283000
   28          1             0       15.757000    4.130000    8.629000
   29          1             0       15.702000    2.376000    6.832000
   30          1             0       12.264000    1.019000    7.537000
   31          1             0       11.281000   -0.846000    6.279000
   32          1             0       12.564000   -1.957000    4.456000
   33          1             0       14.862000   -1.170000    3.903000
   34          1             0       15.869000    0.708000    5.151000
   35          1             0       14.741000    0.310000    9.023000
   36          1             0       14.671000   -0.529000   11.343000
   37          1             0       13.957000    0.972000   13.195000
   38          1             0       13.290000    3.299000   12.723000
   39          1             0       11.216000    4.181000   12.523000
   40          1             0        9.992000    4.666000   11.360000
   41          1             0       10.916000    3.204000   11.070000
 ---------------------------------------------------------------------
                    Distance matrix (angstroms):
                    1          2          3          4          5
     1  C    0.000000
     2  C    1.540998   0.000000
     3  C    2.546662   1.551481   0.000000
     4  C    3.864741   2.566667   1.533782   0.000000
     5  N    4.983430   3.851339   2.466097   1.461289   0.000000
     6  C    6.286009   5.027758   3.767959   2.514081   1.402847
     7  C    6.790825   5.373232   4.422776   2.966265   2.476837
     8  C    8.189640   6.753796   5.814088   4.374295   3.753867
     9  C    9.033158   7.673956   6.541793   5.202102   4.235208
    10  C    8.665851   7.440501   6.122466   4.960024   3.711799
    11  C    7.358867   6.215208   4.821663   3.777394   2.412603
    12  C    4.062791   2.928847   2.458332   1.525967   2.535227
    13  C    5.297176   4.302696   3.664306   2.580136   2.940400
    14  C    5.916145   5.109324   4.765065   3.864819   4.341278
    15  C    5.505835   4.873387   4.957942   4.348132   5.181126
    16  C    4.333093   3.720954   4.151379   3.822677   4.966826
    17  C    3.454305   2.502089   2.830216   2.516473   3.808885
    18  N    2.497604   1.486953   2.545312   2.813926   4.261922
    19  C    3.236171   2.452600   3.743720   3.952875   5.412234
    20  C    4.697487   3.859989   4.939453   4.748603   6.149694
    21  O    3.242389   2.772455   4.237413   4.731927   6.160272
    22  H    2.144312   1.092412   2.115412   3.008137   4.224877
    23  H    4.231688   2.743160   2.127453   1.092299   2.076829
    24  H    1.091059   2.185116   2.753317   4.250391   5.152490
    25  H    1.090415   2.192665   3.504760   4.712279   5.935605
    26  H    1.090452   2.187330   2.853244   4.049368   5.084298
    27  H    2.978326   2.172047   1.091148   2.174827   2.673189
    28  H    2.585976   2.173772   1.091785   2.145977   2.730117
    29  H    4.973180   4.090437   2.557248   2.132290   1.015652
    30  H    6.296829   4.822002   4.148672   2.672720   2.756484
    31  H    8.729118   7.243594   6.483856   5.018674   4.632734
    32  H   10.094468   8.715316   7.612204   6.262159   5.316530
    33  H    9.508163   8.350063   6.968136   5.904905   4.572452
    34  H    7.328512   6.357226   4.858251   4.094572   2.636731
    35  H    5.990425   4.962249   4.032423   2.813572   2.606196
    36  H    6.932231   6.157807   5.705170   4.737629   4.972143
    37  H    6.305274   5.809629   5.988918   5.428984   6.235199
    38  H    4.410225   4.047026   4.794638   4.690221   5.927096
    39  H    4.995451   4.418338   5.533993   5.410762   6.803875
    40  H    5.375428   4.544193   5.685923   5.511906   6.894496
    41  H    5.158928   4.089758   4.865200   4.339297   5.636077
                    6          7          8          9         10
     6  C    0.000000
     7  C    1.415847   0.000000
     8  C    2.451811   1.409264   0.000000
     9  C    2.833230   2.441081   1.407163   0.000000
    10  C    2.449069   2.813234   2.434064   1.407186   0.000000
    11  C    1.410504   2.434496   2.812024   2.440046   1.408654
    12  C    3.337636   3.463815   4.791899   5.756861   5.683122
    13  C    3.379269   3.453740   4.572480   5.425482   5.378197
    14  C    4.727317   4.639153   5.596538   6.481516   6.544669
    15  C    5.749683   5.594602   6.629544   7.645023   7.760051
    16  C    5.730239   5.606096   6.788038   7.888865   7.979406
    17  C    4.677945   4.659180   5.956245   7.036664   7.051225
    18  N    5.243730   5.266404   6.595788   7.690556   7.678101
    19  C    6.246082   6.039206   7.265680   8.470688   8.621934
    20  C    6.745856   6.247684   7.311565   8.627392   8.995754
    21  O    7.038982   6.888953   8.105016   9.280773   9.395852
    22  H    5.264452   5.510751   6.823616   7.759980   7.591061
    23  H    2.668503   2.701592   4.041567   5.024021   5.006778
    24  H    6.484989   7.147337   8.530317   9.252356   8.757299
    25  H    7.182932   7.554595   8.934494   9.863376   9.587405
    26  H    6.425880   6.994926   8.403294   9.211494   8.793201
    27  H    3.884593   4.663568   5.978859   6.572516   6.049490
    28  H    4.127490   4.969695   6.350814   6.959910   6.391055
    29  H    2.095484   3.380401   4.546338   4.790792   3.992421
    30  H    2.184572   1.080458   2.141206   3.405311   3.893146
    31  H    3.428899   2.161198   1.081117   2.161113   3.414320
    32  H    3.914653   3.421169   2.162776   1.081424   2.162687
    33  H    3.425666   3.894766   3.414872   2.161735   1.081539
    34  H    2.168653   3.420424   3.892526   3.410903   2.150361
    35  H    2.745194   2.972201   3.959245   4.611032   4.466547
    36  H    5.170492   5.064938   5.824767   6.582895   6.663261
    37  H    6.759998   6.555305   7.503211   8.511154   8.670501
    38  H    6.740104   6.585377   7.762260   8.906031   9.023370
    39  H    7.458324   7.005434   8.074925   9.379466   9.723812
    40  H    7.403406   6.798853   7.767715   9.115856   9.575861
    41  H    6.057082   5.419002   6.401591   7.743771   8.202792
                   11         12         13         14         15
    11  C    0.000000
    12  C    4.618566   0.000000
    13  C    4.465048   1.414457   0.000000
    14  C    5.746267   2.448303   1.407127   0.000000
    15  C    6.896056   2.824453   2.435613   1.406145   0.000000
    16  C    7.001207   2.444825   2.812883   2.436846   1.407103
    17  C    5.995883   1.416191   2.448655   2.829598   2.451226
    18  N    6.571937   2.454211   3.751711   4.265385   3.776254
    19  C    7.617733   3.599291   4.813773   5.154725   4.448687
    20  C    8.155096   4.072771   4.997013   5.049387   4.208193
    21  O    8.370445   4.655222   5.948012   6.359932   5.644656
    22  H    6.437825   3.656167   5.065976   5.951998   5.737912
    23  H    4.004768   2.128311   3.211449   4.428188   4.815750
    24  H    7.417671   4.744549   5.959071   6.709814   6.438234
    25  H    8.317377   4.786588   6.042512   6.524325   5.912247
    26  H    7.459233   3.956675   4.997808   5.454550   5.008417
    27  H    4.754853   3.426844   4.570519   5.763104   6.032265
    28  H    5.021333   2.692921   3.639633   4.633724   4.860868
    29  H    2.587899   3.182589   3.542244   4.881851   5.716526
    30  H    3.426240   2.927731   3.115376   4.196181   4.949340
    31  H    3.893131   5.268457   5.044208   5.900634   6.834036
    32  H    3.420171   6.765884   6.367881   7.331721   8.507520
    33  H    2.161204   6.655301   6.297059   7.430940   8.690578
    34  H    1.080655   5.009662   4.891264   6.169258   7.306626
    35  H    3.619052   2.175396   1.080231   2.147510   3.405869
    36  H    6.008828   3.426791   2.160987   1.081309   2.161060
    37  H    7.863615   3.905785   3.415335   2.160297   1.081394
    38  H    8.033200   3.431229   3.893416   3.406794   2.146936
    39  H    8.856008   4.508817   5.273843   5.050710   3.969301
    40  H    8.808831   5.007599   5.957056   6.053795   5.245294
    41  H    7.461587   3.569546   4.325184   4.391665   3.739796
                   16         17         18         19         20
    16  C    0.000000
    17  C    1.416569   0.000000
    18  N    2.493584   1.436137   0.000000
    19  C    3.096696   2.462566   1.365431   0.000000
    20  C    3.054412   2.933695   2.517986   1.531913   0.000000
    21  O    4.264685   3.600059   2.284224   1.236149   2.360733
    22  H    4.547872   3.294730   2.098142   2.559253   3.982476
    23  H    4.178766   2.841306   2.863516   3.696810   4.390875
    24  H    5.336839   4.370212   3.447001   4.180415   5.683002
    25  H    4.622530   3.921038   2.765726   3.041122   4.477139
    26  H    3.968765   3.339018   2.779618   3.684966   4.985829
    27  H    5.225194   3.875771   3.413426   4.443744   5.710968
    28  H    4.201187   3.094112   3.071592   4.375466   5.553226
    29  H    5.504829   4.373686   4.747368   5.978370   6.863828
    30  H    4.838710   3.917874   4.495794   5.135549   5.223396
    31  H    7.006451   6.281075   6.912790   7.411833   7.252403
    32  H    8.814605   8.018826   8.687068   9.407038   9.472006
    33  H    8.958448   8.042188   8.668342   9.648039  10.061155
    34  H    7.390812   6.370521   6.895774   8.034863   8.719849
    35  H    3.892733   3.433171   4.626617   5.723426   5.946573
    36  H    3.416743   3.910904   5.346653   6.215655   6.014443
    37  H    2.160876   3.429501   4.650805   5.161836   4.733534
    38  H    1.081194   2.178477   2.744712   2.963860   2.787566
    39  H    2.872031   3.224386   3.014110   2.172067   1.088353
    40  H    4.137817   3.959411   3.373580   2.164162   1.090014
    41  H    2.832818   2.690241   2.721825   2.184740   1.089647
                   21         22         23         24         25
    21  O    0.000000
    22  H    2.503626   0.000000
    23  H    4.393345   2.815842   0.000000
    24  H    4.028307   2.493267   4.633594   0.000000
    25  H    2.734270   2.494545   4.921446   1.756038   0.000000
    26  H    3.930764   3.063622   4.632791   1.761818   1.759656
    27  H    4.711366   2.270166   2.503168   2.801454   3.900681
    28  H    4.914735   2.973852   3.026947   2.713118   3.655596
    29  H    6.642670   4.513797   2.886808   4.965409   6.004232
    30  H    6.023652   4.945157   2.201904   6.780821   6.955053
    31  H    8.256669   7.260010   4.542727   9.151836   9.384803
    32  H   10.214752   8.767093   6.032786  10.318158  10.907128
    33  H   10.400165   8.502058   6.008051   9.523444  10.463289
    34  H    8.734409   6.629272   4.504187   7.260336   8.345474
    35  H    6.811165   5.653780   3.457402   6.517269   6.826998
    36  H    7.428344   7.002926   5.313330   7.692081   7.563027
    37  H    6.324182   6.679675   5.880625   7.269208   6.612419
    38  H    4.005534   4.815003   4.963191   5.478946   4.451921
    39  H    2.934505   4.712946   5.218911   6.047915   4.689647
    40  H    2.497944   4.428527   4.986969   6.292098   5.025221
    41  H    3.194185   4.265618   3.936607   6.118297   5.145608
                   26         27         28         29         30
    26  H    0.000000
    27  H    3.483805   0.000000
    28  H    2.500099   1.744110   0.000000
    29  H    5.005979   2.567201   2.511723   0.000000
    30  H    6.534125   4.540685   4.803315   3.762754   0.000000
    31  H    8.973569   6.707211   7.093494   5.498394   2.455011
    32  H   10.281763   7.626288   8.041191   5.853829   4.294082
    33  H    9.612365   6.817860   7.157241   4.675335   4.974664
    34  H    7.376172   4.685535   4.880483   2.374000   4.334252
    35  H    5.719277   4.770691   3.972391   3.161069   2.974291
    36  H    6.411387   6.662574   5.500134   5.463617   4.761889
    37  H    5.730160   7.071686   5.836208   6.745666   5.906050
    38  H    4.044424   5.839367   4.851545   6.432228   5.757228
    39  H    5.095799   6.395419   5.982183   7.467911   5.996394
    40  H    5.803266   6.333472   6.401631   7.638782   5.751341
    41  H    5.388767   5.667156   5.500113   6.446086   4.367312
                   31         32         33         34         35
    31  H    0.000000
    32  H    2.490731   0.000000
    33  H    4.309746   2.491181   0.000000
    34  H    4.973635   4.302124   2.469501   0.000000
    35  H    4.564808   5.544015   5.330989   4.052551   0.000000
    36  H    6.102187   7.342302   7.470004   6.426993   2.468040
    37  H    7.635257   9.321460   9.578541   8.272326   4.296334
    38  H    7.921000   9.823233  10.011770   8.408312   4.972879
    39  H    8.016389  10.225881  10.781044   9.383950   6.297640
    40  H    7.606591   9.906792  10.648129   9.421071   6.854875
    41  H    6.284060   8.549668   9.277321   8.111522   5.214985
                   36         37         38         39         40
    36  H    0.000000
    37  H    2.488514   0.000000
    38  H    4.297109   2.466293   0.000000
    39  H    5.959323   4.273447   2.262609   0.000000
    40  H    6.991520   5.721371   3.821421   1.756693   0.000000
    41  H    5.301872   4.329565   2.894358   1.776440   1.753659
                   41
    41  H    0.000000
 Stoichiometry    C18H20N2O
 Framework group  C1[X(C18H20N2O)]
 Deg. of freedom   117
 Full point group                 C1
 Largest Abelian subgroup         C1      NOp   1
 Largest concise Abelian subgroup C1      NOp   1
                         Standard orientation:                         
 ---------------------------------------------------------------------
 Center     Atomic     Atomic              Coordinates (Angstroms)
 Number     Number      Type              X           Y           Z
 ---------------------------------------------------------------------
    1          6             0       -3.134915   -2.218053   -1.333481
    2          6             0       -2.071857   -1.744130   -0.323541
    3          6             0       -0.648760   -1.836797   -0.934527
    4          6             0        0.323465   -0.822068   -0.320045
    5          7             0        1.677252   -1.023936   -0.831783
    6          6             0        2.821381   -0.604047   -0.137057
    7          6             0        2.762728    0.148483    1.060807
    8          6             0        3.947273    0.542770    1.714579
    9          6             0        5.200503    0.189419    1.181041
   10          6             0        5.266696   -0.557435   -0.009757
   11          6             0        4.082926   -0.949771   -0.664790
   12          6             0       -0.279549    0.561880   -0.542834
   13          6             0        0.472627    1.649992   -1.043766
   14          6             0       -0.147154    2.888076   -1.294814
   15          6             0       -1.526563    3.040972   -1.068760
   16          6             0       -2.283294    1.962287   -0.575066
   17          6             0       -1.661853    0.723769   -0.280867
   18          7             0       -2.406468   -0.399393    0.215668
   19          6             0       -3.254422   -0.316988    1.282713
   20          6             0       -3.341077    0.967950    2.112279
   21          8             0       -3.953134   -1.265941    1.656015
   22          1             0       -2.066528   -2.448588    0.511370
   23          1             0        0.339285   -1.006048    0.756532
   24          1             0       -2.902553   -3.215863   -1.708705
   25          1             0       -4.126819   -2.265518   -0.883062
   26          1             0       -3.194168   -1.546499   -2.190563
   27          1             0       -0.271324   -2.853907   -0.817769
   28          1             0       -0.703021   -1.656266   -2.009914
   29          1             0        1.785143   -1.578885   -1.675548
   30          1             0        1.819506    0.447262    1.494920
   31          1             0        3.891439    1.119932    2.627037
   32          1             0        6.109221    0.491736    1.683348
   33          1             0        6.227436   -0.830323   -0.424771
   34          1             0        4.156476   -1.523090   -1.577869
   35          1             0        1.526722    1.543341   -1.254498
   36          1             0        0.433750    3.714963   -1.679572
   37          1             0       -2.007920    3.985474   -1.282361
   38          1             0       -3.347442    2.094926   -0.437311
   39          1             0       -4.048895    1.666963    1.670819
   40          1             0       -3.689710    0.740975    3.119785
   41          1             0       -2.369957    1.452389    2.210136
 ---------------------------------------------------------------------
 Rotational constants (GHZ):      0.5311165      0.1858411      0.1692473
 Standard basis: 6-31G(d) (6D, 7F)
 There are   355 symmetry adapted basis functions of A   symmetry.
 Integral buffers will be    131072 words long.
 Raffenetti 1 integral format.
 Two-electron integral symmetry is turned on.
   355 basis functions,   668 primitive gaussians,   355 cartesian basis functions
    75 alpha electrons       75 beta electrons
       nuclear repulsion energy      1629.0145721430 Hartrees.
 NAtoms=   41 NActive=   41 NUniq=   41 SFac= 7.50D-01 NAtFMM=   80 NAOKFM=F Big=F
 One-electron integrals computed using PRISM.
 NBasis=   355 RedAO= T  NBF=   355
 NBsUse=   355 1.00D-06 NBFU=   355
 Harris functional with IExCor=  205 diagonalized for initial guess.
 ExpMin= 1.61D-01 ExpMax= 5.48D+03 ExpMxC= 8.25D+02 IAcc=1 IRadAn=         1 AccDes= 1.00D-06
 HarFok:  IExCor= 205 AccDes= 1.00D-06 IRadAn=         1 IDoV=1
 ScaDFX=  1.000000  1.000000  1.000000  1.000000
 Initial guess orbital symmetries:
       Occupied  (A) (A) (A) (A) (A) (A) (A) (A) (A) (A) (A) (A)
                 (A) (A) (A) (A) (A) (A) (A) (A) (A) (A) (A) (A)
                 (A) (A) (A) (A) (A) (A) (A) (A) (A) (A) (A) (A)
                 (A) (A) (A) (A) (A) (A) (A) (A) (A) (A) (A) (A)
                 (A) (A) (A) (A) (A) (A) (A) (A) (A) (A) (A) (A)
                 (A) (A) (A) (A) (A) (A) (A) (A) (A) (A) (A) (A)
                 (A) (A) (A)
       Virtual   (A) (A) (A) (A) (A) (A) (A) (A) (A) (A) (A) (A)
                 (A) (A) (A) (A) (A) (A) (A) (A) (A) (A) (A) (A)
                 (A) (A) (A) (A) (A) (A) (A) (A) (A) (A) (A) (A)
                 (A) (A) (A) (A) (A) (A) (A) (A) (A) (A) (A) (A)
                 (A) (A) (A) (A) (A) (A) (A) (A) (A) (A) (A) (A)
                 (A) (A) (A) (A) (A) (A) (A) (A) (A) (A) (A) (A)
                 (A) (A) (A) (A) (A) (A) (A) (A) (A) (A) (A) (A)
                 (A) (A) (A) (A) (A) (A) (A) (A) (A) (A) (A) (A)
                 (A) (A) (A) (A) (A) (A) (A) (A) (A) (A) (A) (A)
                 (A) (A) (A) (A) (A) (A) (A) (A) (A) (A) (A) (A)
                 (A) (A) (A) (A) (A) (A) (A) (A) (A) (A) (A) (A)
                 (A) (A) (A) (A) (A) (A) (A) (A) (A) (A) (A) (A)
                 (A) (A) (A) (A) (A) (A) (A) (A) (A) (A) (A) (A)
                 (A) (A) (A) (A) (A) (A) (A) (A) (A) (A) (A) (A)
                 (A) (A) (A) (A) (A) (A) (A) (A) (A) (A) (A) (A)
                 (A) (A) (A) (A) (A) (A) (A) (A) (A) (A) (A) (A)
                 (A) (A) (A) (A) (A) (A) (A) (A) (A) (A) (A) (A)
                 (A) (A) (A) (A) (A) (A) (A) (A) (A) (A) (A) (A)
                 (A) (A) (A) (A) (A) (A) (A) (A) (A) (A) (A) (A)
                 (A) (A) (A) (A) (A) (A) (A) (A) (A) (A) (A) (A)
                 (A) (A) (A) (A) (A) (A) (A) (A) (A) (A) (A) (A)
                 (A) (A) (A) (A) (A) (A) (A) (A) (A) (A) (A) (A)
                 (A) (A) (A) (A) (A) (A) (A) (A) (A) (A) (A) (A)
                 (A) (A) (A) (A)
 The electronic state of the initial guess is 1-A.
 Requested convergence on RMS density matrix=1.00D-08 within 128 cycles.
 Requested convergence on MAX density matrix=1.00D-06.
 Requested convergence on             energy=1.00D-06.
 No special actions if energy rises.
 Integral accuracy reduced to 1.0D-05 until final iterations.
 Initial convergence to 1.0D-05 achieved.  Increase integral accuracy.
 SCF Done:  E(RHF) =  -877.039352481     A.U. after   16 cycles
             Convg  =    0.3946D-08             -V/T =  2.0026
             S**2   =   0.0000

 **********************************************************************

            Population analysis using the SCF density.

 **********************************************************************

 Orbital symmetries:
 BldTbl:  Degeneracy threshold= 1.00D-02
       Occupied  (A) (A) (A) (A) (A) (A) (A) (A) (A) (A) (A) (A)
                 (A) (A) (A) (A) (A) (A) (A) (A) (A) (A) (A) (A)
                 (A) (A) (A) (A) (A) (A) (A) (A) (A) (A) (A) (A)
                 (A) (A) (A) (A) (A) (A) (A) (A) (A) (A) (A) (A)
                 (A) (A) (A) (A) (A) (A) (A) (A) (A) (A) (A) (A)
                 (A) (A) (A) (A) (A) (A) (A) (A) (A) (A) (A) (A)
                 (A) (A) (A)
       Virtual   (A) (A) (A) (A) (A) (A) (A) (A) (A) (A) (A) (A)
                 (A) (A) (A) (A) (A) (A) (A) (A) (A) (A) (A) (A)
                 (A) (A) (A) (A) (A) (A) (A) (A) (A) (A) (A) (A)
                 (A) (A) (A) (A) (A) (A) (A) (A) (A) (A) (A) (A)
                 (A) (A) (A) (A) (A) (A) (A) (A) (A) (A) (A) (A)
                 (A) (A) (A) (A) (A) (A) (A) (A) (A) (A) (A) (A)
                 (A) (A) (A) (A) (A) (A) (A) (A) (A) (A) (A) (A)
                 (A) (A) (A) (A) (A) (A) (A) (A) (A) (A) (A) (A)
                 (A) (A) (A) (A) (A) (A) (A) (A) (A) (A) (A) (A)
                 (A) (A) (A) (A) (A) (A) (A) (A) (A) (A) (A) (A)
                 (A) (A) (A) (A) (A) (A) (A) (A) (A) (A) (A) (A)
                 (A) (A) (A) (A) (A) (A) (A) (A) (A) (A) (A) (A)
                 (A) (A) (A) (A) (A) (A) (A) (A) (A) (A) (A) (A)
                 (A) (A) (A) (A) (A) (A) (A) (A) (A) (A) (A) (A)
                 (A) (A) (A) (A) (A) (A) (A) (A) (A) (A) (A) (A)
                 (A) (A) (A) (A) (A) (A) (A) (A) (A) (A) (A) (A)
                 (A) (A) (A) (A) (A) (A) (A) (A) (A) (A) (A) (A)
                 (A) (A) (A) (A) (A) (A) (A) (A) (A) (A) (A) (A)
                 (A) (A) (A) (A) (A) (A) (A) (A) (A) (A) (A) (A)
                 (A) (A) (A) (A) (A) (A) (A) (A) (A) (A) (A) (A)
                 (A) (A) (A) (A) (A) (A) (A) (A) (A) (A) (A) (A)
                 (A) (A) (A) (A) (A) (A) (A) (A) (A) (A) (A) (A)
                 (A) (A) (A) (A) (A) (A) (A) (A) (A) (A) (A) (A)
                 (A) (A) (A) (A)
 The electronic state is 1-A.
 Alpha  occ. eigenvalues --  -20.51958 -15.60509 -15.57682 -11.35409 -11.29232
 Alpha  occ. eigenvalues --  -11.28798 -11.28502 -11.28055 -11.25187 -11.24854
 Alpha  occ. eigenvalues --  -11.24616 -11.24364 -11.24261 -11.24159 -11.24006
 Alpha  occ. eigenvalues --  -11.23996 -11.23091 -11.22819 -11.22817 -11.22233
 Alpha  occ. eigenvalues --  -11.21499  -1.36932  -1.26412  -1.24023  -1.14217
 Alpha  occ. eigenvalues --   -1.12635  -1.08161  -1.03891  -1.00985  -1.00538
 Alpha  occ. eigenvalues --   -0.99985  -0.98149  -0.95337  -0.88410  -0.84967
 Alpha  occ. eigenvalues --   -0.84191  -0.82762  -0.80810  -0.78615  -0.75121
 Alpha  occ. eigenvalues --   -0.71385  -0.68732  -0.67941  -0.67185  -0.66755
 Alpha  occ. eigenvalues --   -0.65776  -0.62817  -0.62293  -0.61345  -0.60704
 Alpha  occ. eigenvalues --   -0.59615  -0.58607  -0.58404  -0.57958  -0.57253
 Alpha  occ. eigenvalues --   -0.56160  -0.55758  -0.55120  -0.53266  -0.52803
 Alpha  occ. eigenvalues --   -0.51390  -0.50806  -0.50545  -0.49565  -0.48739
 Alpha  occ. eigenvalues --   -0.48494  -0.47896  -0.47010  -0.42142  -0.41401
 Alpha  occ. eigenvalues --   -0.40183  -0.33683  -0.32752  -0.31294  -0.28270
 Alpha virt. eigenvalues --    0.12285   0.13093   0.14226   0.16250   0.19937
 Alpha virt. eigenvalues --    0.22414   0.23171   0.23453   0.24208   0.25914
 Alpha virt. eigenvalues --    0.26511   0.28655   0.29365   0.29821   0.30046
 Alpha virt. eigenvalues --    0.30914   0.31205   0.31499   0.32042   0.32412
 Alpha virt. eigenvalues --    0.33343   0.33721   0.34018   0.34836   0.36201
 Alpha virt. eigenvalues --    0.36236   0.37197   0.37304   0.38593   0.39607
 Alpha virt. eigenvalues --    0.41456   0.43198   0.44084   0.44166   0.46096
 Alpha virt. eigenvalues --    0.46380   0.48761   0.49226   0.49481   0.51046
 Alpha virt. eigenvalues --    0.52939   0.54075   0.54868   0.55377   0.57127
 Alpha virt. eigenvalues --    0.62124   0.66101   0.69346   0.70083   0.71987
 Alpha virt. eigenvalues --    0.72624   0.72986   0.73570   0.74364   0.75124
 Alpha virt. eigenvalues --    0.75519   0.76532   0.77459   0.77678   0.77943
 Alpha virt. eigenvalues --    0.79157   0.79459   0.80836   0.81215   0.81868
 Alpha virt. eigenvalues --    0.82292   0.82575   0.83060   0.83936   0.84031
 Alpha virt. eigenvalues --    0.84454   0.84911   0.85581   0.86048   0.87483
 Alpha virt. eigenvalues --    0.89049   0.89833   0.90187   0.90948   0.93079
 Alpha virt. eigenvalues --    0.93652   0.94913   0.95526   0.96582   0.98324
 Alpha virt. eigenvalues --    1.00627   1.01670   1.02652   1.04277   1.05743
 Alpha virt. eigenvalues --    1.06473   1.08276   1.09446   1.10960   1.11193
 Alpha virt. eigenvalues --    1.11392   1.11677   1.12244   1.12442   1.12855
 Alpha virt. eigenvalues --    1.13165   1.14105   1.15588   1.16141   1.16723
 Alpha virt. eigenvalues --    1.16834   1.17106   1.18477   1.18653   1.19210
 Alpha virt. eigenvalues --    1.19614   1.19751   1.20443   1.21112   1.21523
 Alpha virt. eigenvalues --    1.22062   1.23631   1.24365   1.24717   1.26354
 Alpha virt. eigenvalues --    1.26481   1.27930   1.28396   1.30301   1.32060
 Alpha virt. eigenvalues --    1.32181   1.32816   1.36628   1.37279   1.39382
 Alpha virt. eigenvalues --    1.40017   1.42004   1.42789   1.43156   1.43976
 Alpha virt. eigenvalues --    1.46470   1.47384   1.49030   1.50726   1.52052
 Alpha virt. eigenvalues --    1.57020   1.60193   1.61993   1.63785   1.64498
 Alpha virt. eigenvalues --    1.66552   1.68268   1.68850   1.70573   1.71186
 Alpha virt. eigenvalues --    1.71744   1.73078   1.74910   1.76436   1.76962
 Alpha virt. eigenvalues --    1.77715   1.78301   1.78583   1.79450   1.81376
 Alpha virt. eigenvalues --    1.86257   1.87988   1.93207   1.95100   1.97542
 Alpha virt. eigenvalues --    2.00504   2.01055   2.04374   2.05330   2.07680
 Alpha virt. eigenvalues --    2.07940   2.09703   2.10761   2.11409   2.12035
 Alpha virt. eigenvalues --    2.13199   2.13407   2.15190   2.15777   2.16496
 Alpha virt. eigenvalues --    2.18521   2.20891   2.22389   2.23534   2.24019
 Alpha virt. eigenvalues --    2.24200   2.25783   2.26771   2.27779   2.28837
 Alpha virt. eigenvalues --    2.30883   2.31518   2.32106   2.34539   2.36634
 Alpha virt. eigenvalues --    2.37190   2.39550   2.40796   2.41256   2.42513
 Alpha virt. eigenvalues --    2.44475   2.45330   2.46060   2.46697   2.48575
 Alpha virt. eigenvalues --    2.48945   2.51318   2.52904   2.53298   2.54563
 Alpha virt. eigenvalues --    2.56146   2.56467   2.58640   2.59528   2.60761
 Alpha virt. eigenvalues --    2.61494   2.62618   2.62904   2.66997   2.67912
 Alpha virt. eigenvalues --    2.69938   2.70802   2.75115   2.77737   2.80599
 Alpha virt. eigenvalues --    2.82207   2.83274   2.85787   2.86943   2.89895
 Alpha virt. eigenvalues --    2.91829   2.92703   2.95280   2.95649   2.96535
 Alpha virt. eigenvalues --    2.97188   2.99045   3.00344   3.03548   3.06051
 Alpha virt. eigenvalues --    3.06816   3.08559   3.08625   3.09621   3.11339
 Alpha virt. eigenvalues --    3.13307   3.14727   3.17118   3.17973   3.26596
 Alpha virt. eigenvalues --    3.28061   3.30456   3.31084   3.38231   3.51903
 Alpha virt. eigenvalues --    3.55886   3.58921   3.76532   3.77581   4.44179
 Alpha virt. eigenvalues --    4.47262   4.50979   4.51869   4.54278   4.54872
 Alpha virt. eigenvalues --    4.57210   4.59327   4.61621   4.64826   4.72336
 Alpha virt. eigenvalues --    4.73234   4.76309   4.80034   4.81266   4.83435
 Alpha virt. eigenvalues --    4.92082   4.96278   5.09883   5.13899   5.19061
          Condensed to atoms (all electrons):
              1          2          3          4          5          6
     1  C    5.137537   0.360765  -0.062173   0.004121  -0.000045   0.000001
     2  C    0.360765   4.864587   0.347829  -0.043116   0.002495  -0.000046
     3  C   -0.062173   0.347829   5.186095   0.365672  -0.044443   0.002239
     4  C    0.004121  -0.043116   0.365672   4.804569   0.257811  -0.037283
     5  N   -0.000045   0.002495  -0.044443   0.257811   7.316591   0.264718
     6  C    0.000001  -0.000046   0.002239  -0.037283   0.264718   4.427880
     7  C    0.000000  -0.000007   0.000352  -0.002771  -0.056644   0.563293
     8  C    0.000000   0.000000   0.000000  -0.000098   0.003073  -0.032621
     9  C    0.000000   0.000000   0.000000   0.000001   0.000261  -0.024818
    10  C    0.000000   0.000000   0.000001  -0.000047   0.002634  -0.034860
    11  C    0.000000   0.000001  -0.000070   0.002061  -0.063102   0.561363
    12  C   -0.000342  -0.004435  -0.066856   0.313773  -0.064220   0.000002
    13  C    0.000000   0.000210   0.000103  -0.031985  -0.002065  -0.002405
    14  C    0.000000  -0.000011  -0.000066   0.002480   0.000274  -0.000087
    15  C   -0.000005  -0.000039   0.000017   0.000008  -0.000015   0.000002
    16  C   -0.000089   0.001983   0.000153   0.002888  -0.000052   0.000000
    17  C    0.001601  -0.036263  -0.007208  -0.052352   0.001261   0.000001
    18  N   -0.065011   0.204446  -0.038211  -0.009888   0.000201  -0.000001
    19  C   -0.001328  -0.026351   0.003631   0.000015   0.000003   0.000000
    20  C   -0.000240   0.003596   0.000032  -0.000051   0.000000   0.000000
    21  O   -0.004568   0.007212   0.000539  -0.000024   0.000000   0.000000
    22  H   -0.043152   0.417410  -0.044322  -0.001890  -0.000137   0.000000
    23  H    0.000115  -0.003103  -0.044540   0.427925  -0.054116   0.002113
    24  H    0.385160  -0.037597  -0.001341   0.000071  -0.000001   0.000000
    25  H    0.391655  -0.028599   0.003854  -0.000080   0.000000   0.000000
    26  H    0.384602  -0.035479  -0.004633  -0.000256  -0.000003   0.000000
    27  H    0.000551  -0.029557   0.392773  -0.035722   0.000862  -0.000170
    28  H   -0.005701  -0.038096   0.387972  -0.040056  -0.002635  -0.000031
    29  H   -0.000005   0.000045  -0.004379  -0.026259   0.333880  -0.024784
    30  H    0.000000   0.000007   0.000206   0.000959  -0.003171  -0.030415
    31  H    0.000000   0.000000   0.000000   0.000002  -0.000066   0.001332
    32  H    0.000000   0.000000   0.000000   0.000000   0.000002   0.000280
    33  H    0.000000   0.000000   0.000000   0.000001  -0.000077   0.001617
    34  H    0.000000   0.000000  -0.000011   0.000033  -0.002785  -0.037163
    35  H    0.000000  -0.000004   0.000050  -0.003159  -0.000678   0.003148
    36  H    0.000000   0.000000   0.000002  -0.000085   0.000004  -0.000002
    37  H    0.000000   0.000001   0.000000   0.000006   0.000000   0.000000
    38  H   -0.000013  -0.000064   0.000006  -0.000083   0.000001   0.000000
    39  H    0.000017  -0.000075  -0.000002   0.000000   0.000000   0.000000
    40  H    0.000000  -0.000056   0.000002  -0.000001   0.000000   0.000000
    41  H    0.000002  -0.000142  -0.000016   0.000023   0.000000   0.000000
              7          8          9         10         11         12
     1  C    0.000000   0.000000   0.000000   0.000000   0.000000  -0.000342
     2  C   -0.000007   0.000000   0.000000   0.000000   0.000001  -0.004435
     3  C    0.000352   0.000000   0.000000   0.000001  -0.000070  -0.066856
     4  C   -0.002771  -0.000098   0.000001  -0.000047   0.002061   0.313773
     5  N   -0.056644   0.003073   0.000261   0.002634  -0.063102  -0.064220
     6  C    0.563293  -0.032621  -0.024818  -0.034860   0.561363   0.000002
     7  C    5.008645   0.538364  -0.054145  -0.031822  -0.037189  -0.001096
     8  C    0.538364   4.862901   0.553390  -0.042476  -0.032469   0.000028
     9  C   -0.054145   0.553390   4.937415   0.549457  -0.053871  -0.000002
    10  C   -0.031822  -0.042476   0.549457   4.856797   0.549858   0.000000
    11  C   -0.037189  -0.032469  -0.053871   0.549858   4.996278   0.000059
    12  C   -0.001096   0.000028  -0.000002   0.000000   0.000059   5.000588
    13  C   -0.003673  -0.000071   0.000019  -0.000006  -0.000220   0.554624
    14  C   -0.000143  -0.000002   0.000000   0.000000  -0.000004  -0.042283
    15  C    0.000006   0.000000   0.000000   0.000000   0.000000  -0.029881
    16  C    0.000001   0.000000   0.000000   0.000000   0.000000  -0.041828
    17  C   -0.000059   0.000002   0.000000   0.000000   0.000001   0.565543
    18  N    0.000003   0.000000   0.000000   0.000000   0.000000  -0.057777
    19  C    0.000000   0.000000   0.000000   0.000000   0.000000   0.000921
    20  C   -0.000001   0.000000   0.000000   0.000000   0.000000   0.000363
    21  O    0.000000   0.000000   0.000000   0.000000   0.000000  -0.000046
    22  H   -0.000002   0.000000   0.000000   0.000000   0.000000   0.000311
    23  H    0.001079  -0.000053  -0.000012  -0.000009   0.000199  -0.075447
    24  H    0.000000   0.000000   0.000000   0.000000   0.000000  -0.000021
    25  H    0.000000   0.000000   0.000000   0.000000   0.000000  -0.000004
    26  H    0.000000   0.000000   0.000000   0.000000   0.000000   0.000212
    27  H   -0.000012   0.000000   0.000000   0.000000  -0.000018   0.006659
    28  H   -0.000014   0.000000   0.000000   0.000000  -0.000004  -0.006222
    29  H    0.002123  -0.000078   0.000004   0.000042  -0.000775   0.001779
    30  H    0.378504  -0.027725   0.002350   0.000135   0.002347   0.001398
    31  H   -0.029283   0.381958  -0.028632   0.002343   0.000324  -0.000003
    32  H    0.002566  -0.030750   0.383590  -0.030985   0.002523   0.000000
    33  H    0.000245   0.002428  -0.029109   0.381422  -0.029519   0.000000
    34  H    0.002542   0.000130   0.002438  -0.026142   0.379984  -0.000005
    35  H    0.000759  -0.000072  -0.000029  -0.000014   0.000549  -0.023064
    36  H   -0.000004   0.000000   0.000000   0.000000   0.000000   0.001998
    37  H    0.000000   0.000000   0.000000   0.000000   0.000000   0.000343
    38  H    0.000000   0.000000   0.000000   0.000000   0.000000   0.002190
    39  H    0.000000   0.000000   0.000000   0.000000   0.000000  -0.000081
    40  H    0.000000   0.000000   0.000000   0.000000   0.000000   0.000013
    41  H   -0.000001   0.000000   0.000000   0.000000   0.000000   0.000416
             13         14         15         16         17         18
     1  C    0.000000   0.000000  -0.000005  -0.000089   0.001601  -0.065011
     2  C    0.000210  -0.000011  -0.000039   0.001983  -0.036263   0.204446
     3  C    0.000103  -0.000066   0.000017   0.000153  -0.007208  -0.038211
     4  C   -0.031985   0.002480   0.000008   0.002888  -0.052352  -0.009888
     5  N   -0.002065   0.000274  -0.000015  -0.000052   0.001261   0.000201
     6  C   -0.002405  -0.000087   0.000002   0.000000   0.000001  -0.000001
     7  C   -0.003673  -0.000143   0.000006   0.000001  -0.000059   0.000003
     8  C   -0.000071  -0.000002   0.000000   0.000000   0.000002   0.000000
     9  C    0.000019   0.000000   0.000000   0.000000   0.000000   0.000000
    10  C   -0.000006   0.000000   0.000000   0.000000   0.000000   0.000000
    11  C   -0.000220  -0.000004   0.000000   0.000000   0.000001   0.000000
    12  C    0.554624  -0.042283  -0.029881  -0.041828   0.565543  -0.057777
    13  C    4.911292   0.535265  -0.042060  -0.036615  -0.028426   0.003461
    14  C    0.535265   4.916439   0.542490  -0.045618  -0.027805  -0.000041
    15  C   -0.042060   0.542490   4.912602   0.529677  -0.040806   0.003765
    16  C   -0.036615  -0.045618   0.529677   4.960974   0.561078  -0.056241
    17  C   -0.028426  -0.027805  -0.040806   0.561078   4.584294   0.221738
    18  N    0.003461  -0.000041   0.003765  -0.056241   0.221738   7.549950
    19  C    0.000011   0.000010  -0.000087  -0.003413  -0.024850   0.262181
    20  C   -0.000024   0.000010  -0.000123  -0.010132  -0.000234  -0.102081
    21  O    0.000000   0.000000  -0.000001  -0.000033   0.000961  -0.095195
    22  H   -0.000002   0.000000   0.000002  -0.000075   0.002934  -0.043062
    23  H   -0.000131   0.000023  -0.000015  -0.000021   0.000054   0.002767
    24  H    0.000000   0.000000   0.000000   0.000000  -0.000077   0.004049
    25  H    0.000000   0.000000   0.000000   0.000014   0.000036  -0.003875
    26  H   -0.000005  -0.000002   0.000003   0.000095   0.001289  -0.001490
    27  H   -0.000017   0.000000   0.000000   0.000001  -0.000069   0.002752
    28  H    0.000280  -0.000008  -0.000021  -0.000104   0.002468  -0.000076
    29  H    0.000159   0.000003   0.000000   0.000002  -0.000011   0.000001
    30  H    0.001415  -0.000008  -0.000016  -0.000009   0.000143  -0.000029
    31  H   -0.000004   0.000000   0.000000   0.000000   0.000000   0.000000
    32  H    0.000000   0.000000   0.000000   0.000000   0.000000   0.000000
    33  H    0.000000   0.000000   0.000000   0.000000   0.000000   0.000000
    34  H    0.000002   0.000000   0.000000   0.000000   0.000000   0.000000
    35  H    0.378346  -0.030136   0.002358   0.000119   0.001772  -0.000062
    36  H   -0.028998   0.382409  -0.029844   0.002428   0.000355   0.000002
    37  H    0.002200  -0.028102   0.380882  -0.027470   0.001364  -0.000072
    38  H    0.000169   0.002285  -0.025488   0.377420  -0.031235  -0.000940
    39  H    0.000003   0.000001   0.000175  -0.001454  -0.001535   0.002388
    40  H   -0.000001  -0.000001   0.000007   0.000515   0.000283   0.002568
    41  H   -0.000039   0.000023  -0.000284  -0.001585   0.002426   0.002414
             19         20         21         22         23         24
     1  C   -0.001328  -0.000240  -0.004568  -0.043152   0.000115   0.385160
     2  C   -0.026351   0.003596   0.007212   0.417410  -0.003103  -0.037597
     3  C    0.003631   0.000032   0.000539  -0.044322  -0.044540  -0.001341
     4  C    0.000015  -0.000051  -0.000024  -0.001890   0.427925   0.000071
     5  N    0.000003   0.000000   0.000000  -0.000137  -0.054116  -0.000001
     6  C    0.000000   0.000000   0.000000   0.000000   0.002113   0.000000
     7  C    0.000000  -0.000001   0.000000  -0.000002   0.001079   0.000000
     8  C    0.000000   0.000000   0.000000   0.000000  -0.000053   0.000000
     9  C    0.000000   0.000000   0.000000   0.000000  -0.000012   0.000000
    10  C    0.000000   0.000000   0.000000   0.000000  -0.000009   0.000000
    11  C    0.000000   0.000000   0.000000   0.000000   0.000199   0.000000
    12  C    0.000921   0.000363  -0.000046   0.000311  -0.075447  -0.000021
    13  C    0.000011  -0.000024   0.000000  -0.000002  -0.000131   0.000000
    14  C    0.000010   0.000010   0.000000   0.000000   0.000023   0.000000
    15  C   -0.000087  -0.000123  -0.000001   0.000002  -0.000015   0.000000
    16  C   -0.003413  -0.010132  -0.000033  -0.000075  -0.000021   0.000000
    17  C   -0.024850  -0.000234   0.000961   0.002934   0.000054  -0.000077
    18  N    0.262181  -0.102081  -0.095195  -0.043062   0.002767   0.004049
    19  C    4.182281   0.374215   0.573760  -0.002835  -0.000038  -0.000008
    20  C    0.374215   5.251303  -0.076638   0.000240  -0.000019   0.000003
    21  O    0.573760  -0.076638   8.204875   0.005259  -0.000026   0.000053
    22  H   -0.002835   0.000240   0.005259   0.497833   0.001450  -0.000413
    23  H   -0.000038  -0.000019  -0.000026   0.001450   0.546535  -0.000009
    24  H   -0.000008   0.000003   0.000053  -0.000413  -0.000009   0.544949
    25  H    0.001641   0.000098   0.005478  -0.002697   0.000000  -0.024537
    26  H    0.000192  -0.000001   0.000022   0.003751   0.000005  -0.027285
    27  H   -0.000007   0.000002  -0.000001  -0.005278  -0.002885   0.000341
    28  H   -0.000159   0.000000  -0.000006   0.004261   0.005135  -0.000082
    29  H    0.000000   0.000000   0.000000  -0.000001   0.002755   0.000000
    30  H    0.000000   0.000002   0.000000  -0.000001  -0.001810   0.000000
    31  H    0.000000   0.000000   0.000000   0.000000   0.000002   0.000000
    32  H    0.000000   0.000000   0.000000   0.000000   0.000000   0.000000
    33  H    0.000000   0.000000   0.000000   0.000000   0.000000   0.000000
    34  H    0.000000   0.000000   0.000000   0.000000   0.000003   0.000000
    35  H    0.000000   0.000000   0.000000   0.000000  -0.000020   0.000000
    36  H    0.000000   0.000000   0.000000   0.000000   0.000002   0.000000
    37  H   -0.000002  -0.000004   0.000000   0.000000   0.000000   0.000000
    38  H    0.001377  -0.001803  -0.000069   0.000004   0.000003   0.000000
    39  H   -0.029450   0.378946   0.000564  -0.000009   0.000001   0.000000
    40  H   -0.028418   0.385896   0.001729   0.000003  -0.000001   0.000000
    41  H   -0.034217   0.373656   0.002633  -0.000013   0.000025   0.000000
             25         26         27         28         29         30
     1  C    0.391655   0.384602   0.000551  -0.005701  -0.000005   0.000000
     2  C   -0.028599  -0.035479  -0.029557  -0.038096   0.000045   0.000007
     3  C    0.003854  -0.004633   0.392773   0.387972  -0.004379   0.000206
     4  C   -0.000080  -0.000256  -0.035722  -0.040056  -0.026259   0.000959
     5  N    0.000000  -0.000003   0.000862  -0.002635   0.333880  -0.003171
     6  C    0.000000   0.000000  -0.000170  -0.000031  -0.024784  -0.030415
     7  C    0.000000   0.000000  -0.000012  -0.000014   0.002123   0.378504
     8  C    0.000000   0.000000   0.000000   0.000000  -0.000078  -0.027725
     9  C    0.000000   0.000000   0.000000   0.000000   0.000004   0.002350
    10  C    0.000000   0.000000   0.000000   0.000000   0.000042   0.000135
    11  C    0.000000   0.000000  -0.000018  -0.000004  -0.000775   0.002347
    12  C   -0.000004   0.000212   0.006659  -0.006222   0.001779   0.001398
    13  C    0.000000  -0.000005  -0.000017   0.000280   0.000159   0.001415
    14  C    0.000000  -0.000002   0.000000  -0.000008   0.000003  -0.000008
    15  C    0.000000   0.000003   0.000000  -0.000021   0.000000  -0.000016
    16  C    0.000014   0.000095   0.000001  -0.000104   0.000002  -0.000009
    17  C    0.000036   0.001289  -0.000069   0.002468  -0.000011   0.000143
    18  N   -0.003875  -0.001490   0.002752  -0.000076   0.000001  -0.000029
    19  C    0.001641   0.000192  -0.000007  -0.000159   0.000000   0.000000
    20  C    0.000098  -0.000001   0.000002   0.000000   0.000000   0.000002
    21  O    0.005478   0.000022  -0.000001  -0.000006   0.000000   0.000000
    22  H   -0.002697   0.003751  -0.005278   0.004261  -0.000001  -0.000001
    23  H    0.000000   0.000005  -0.002885   0.005135   0.002755  -0.001810
    24  H   -0.024537  -0.027285   0.000341  -0.000082   0.000000   0.000000
    25  H    0.476178  -0.025316  -0.000080   0.000110   0.000000   0.000000
    26  H   -0.025316   0.541101   0.000104   0.003002  -0.000001   0.000000
    27  H   -0.000080   0.000104   0.507817  -0.029807   0.000930  -0.000010
    28  H    0.000110   0.003002  -0.029807   0.543444   0.002363  -0.000005
    29  H    0.000000  -0.000001   0.000930   0.002363   0.325712  -0.000100
    30  H    0.000000   0.000000  -0.000010  -0.000005  -0.000100   0.468721
    31  H    0.000000   0.000000   0.000000   0.000000   0.000002  -0.001246
    32  H    0.000000   0.000000   0.000000   0.000000   0.000000  -0.000104
    33  H    0.000000   0.000000   0.000000   0.000000  -0.000006   0.000008
    34  H    0.000000   0.000000  -0.000001  -0.000001   0.003814  -0.000097
    35  H    0.000000   0.000000   0.000001   0.000001  -0.000051  -0.000092
    36  H    0.000000   0.000000   0.000000   0.000000   0.000000  -0.000001
    37  H    0.000000   0.000000   0.000000   0.000000   0.000000   0.000000
    38  H    0.000000   0.000018   0.000000   0.000002   0.000000   0.000000
    39  H   -0.000007  -0.000001   0.000000   0.000000   0.000000   0.000000
    40  H    0.000000   0.000000   0.000000   0.000000   0.000000   0.000000
    41  H   -0.000002   0.000000   0.000000   0.000001   0.000000   0.000012
             31         32         33         34         35         36
     1  C    0.000000   0.000000   0.000000   0.000000   0.000000   0.000000
     2  C    0.000000   0.000000   0.000000   0.000000  -0.000004   0.000000
     3  C    0.000000   0.000000   0.000000  -0.000011   0.000050   0.000002
     4  C    0.000002   0.000000   0.000001   0.000033  -0.003159  -0.000085
     5  N   -0.000066   0.000002  -0.000077  -0.002785  -0.000678   0.000004
     6  C    0.001332   0.000280   0.001617  -0.037163   0.003148  -0.000002
     7  C   -0.029283   0.002566   0.000245   0.002542   0.000759  -0.000004
     8  C    0.381958  -0.030750   0.002428   0.000130  -0.000072   0.000000
     9  C   -0.028632   0.383590  -0.029109   0.002438  -0.000029   0.000000
    10  C    0.002343  -0.030985   0.381422  -0.026142  -0.000014   0.000000
    11  C    0.000324   0.002523  -0.029519   0.379984   0.000549   0.000000
    12  C   -0.000003   0.000000   0.000000  -0.000005  -0.023064   0.001998
    13  C   -0.000004   0.000000   0.000000   0.000002   0.378346  -0.028998
    14  C    0.000000   0.000000   0.000000   0.000000  -0.030136   0.382409
    15  C    0.000000   0.000000   0.000000   0.000000   0.002358  -0.029844
    16  C    0.000000   0.000000   0.000000   0.000000   0.000119   0.002428
    17  C    0.000000   0.000000   0.000000   0.000000   0.001772   0.000355
    18  N    0.000000   0.000000   0.000000   0.000000  -0.000062   0.000002
    19  C    0.000000   0.000000   0.000000   0.000000   0.000000   0.000000
    20  C    0.000000   0.000000   0.000000   0.000000   0.000000   0.000000
    21  O    0.000000   0.000000   0.000000   0.000000   0.000000   0.000000
    22  H    0.000000   0.000000   0.000000   0.000000   0.000000   0.000000
    23  H    0.000002   0.000000   0.000000   0.000003  -0.000020   0.000002
    24  H    0.000000   0.000000   0.000000   0.000000   0.000000   0.000000
    25  H    0.000000   0.000000   0.000000   0.000000   0.000000   0.000000
    26  H    0.000000   0.000000   0.000000   0.000000   0.000000   0.000000
    27  H    0.000000   0.000000   0.000000  -0.000001   0.000001   0.000000
    28  H    0.000000   0.000000   0.000000  -0.000001   0.000001   0.000000
    29  H    0.000002   0.000000  -0.000006   0.003814  -0.000051   0.000000
    30  H   -0.001246  -0.000104   0.000008  -0.000097  -0.000092  -0.000001
    31  H    0.470041  -0.001246  -0.000105   0.000009  -0.000002   0.000000
    32  H   -0.001246   0.482553  -0.001294  -0.000106   0.000000   0.000000
    33  H   -0.000105  -0.001294   0.473321  -0.001467   0.000000   0.000000
    34  H    0.000009  -0.000106  -0.001467   0.487639   0.000016   0.000000
    35  H   -0.000002   0.000000   0.000000   0.000016   0.433923  -0.000916
    36  H    0.000000   0.000000   0.000000   0.000000  -0.000916   0.466872
    37  H    0.000000   0.000000   0.000000   0.000000  -0.000101  -0.001074
    38  H    0.000000   0.000000   0.000000   0.000000   0.000008  -0.000102
    39  H    0.000000   0.000000   0.000000   0.000000   0.000000   0.000000
    40  H    0.000000   0.000000   0.000000   0.000000   0.000000   0.000000
    41  H    0.000000   0.000000   0.000000   0.000000   0.000000   0.000000
             37         38         39         40         41
     1  C    0.000000  -0.000013   0.000017   0.000000   0.000002
     2  C    0.000001  -0.000064  -0.000075  -0.000056  -0.000142
     3  C    0.000000   0.000006  -0.000002   0.000002  -0.000016
     4  C    0.000006  -0.000083   0.000000  -0.000001   0.000023
     5  N    0.000000   0.000001   0.000000   0.000000   0.000000
     6  C    0.000000   0.000000   0.000000   0.000000   0.000000
     7  C    0.000000   0.000000   0.000000   0.000000  -0.000001
     8  C    0.000000   0.000000   0.000000   0.000000   0.000000
     9  C    0.000000   0.000000   0.000000   0.000000   0.000000
    10  C    0.000000   0.000000   0.000000   0.000000   0.000000
    11  C    0.000000   0.000000   0.000000   0.000000   0.000000
    12  C    0.000343   0.002190  -0.000081   0.000013   0.000416
    13  C    0.002200   0.000169   0.000003  -0.000001  -0.000039
    14  C   -0.028102   0.002285   0.000001  -0.000001   0.000023
    15  C    0.380882  -0.025488   0.000175   0.000007  -0.000284
    16  C   -0.027470   0.377420  -0.001454   0.000515  -0.001585
    17  C    0.001364  -0.031235  -0.001535   0.000283   0.002426
    18  N   -0.000072  -0.000940   0.002388   0.002568   0.002414
    19  C   -0.000002   0.001377  -0.029450  -0.028418  -0.034217
    20  C   -0.000004  -0.001803   0.378946   0.385896   0.373656
    21  O    0.000000  -0.000069   0.000564   0.001729   0.002633
    22  H    0.000000   0.000004  -0.000009   0.000003  -0.000013
    23  H    0.000000   0.000003   0.000001  -0.000001   0.000025
    24  H    0.000000   0.000000   0.000000   0.000000   0.000000
    25  H    0.000000   0.000000  -0.000007   0.000000  -0.000002
    26  H    0.000000   0.000018  -0.000001   0.000000   0.000000
    27  H    0.000000   0.000000   0.000000   0.000000   0.000000
    28  H    0.000000   0.000002   0.000000   0.000000   0.000001
    29  H    0.000000   0.000000   0.000000   0.000000   0.000000
    30  H    0.000000   0.000000   0.000000   0.000000   0.000012
    31  H    0.000000   0.000000   0.000000   0.000000   0.000000
    32  H    0.000000   0.000000   0.000000   0.000000   0.000000
    33  H    0.000000   0.000000   0.000000   0.000000   0.000000
    34  H    0.000000   0.000000   0.000000   0.000000   0.000000
    35  H   -0.000101   0.000008   0.000000   0.000000   0.000000
    36  H   -0.001074  -0.000102   0.000000   0.000000   0.000000
    37  H    0.465210  -0.001175  -0.000002   0.000000  -0.000006
    38  H   -0.001175   0.462137   0.000520   0.000057  -0.000146
    39  H   -0.000002   0.000520   0.501517  -0.020027  -0.022450
    40  H    0.000000   0.000057  -0.020027   0.465928  -0.024361
    41  H   -0.000006  -0.000146  -0.022450  -0.024361   0.512069
 Mulliken atomic charges:
              1
     1  C   -0.483454
     2  C    0.072452
     3  C   -0.373258
     4  C    0.102788
     5  N   -0.889815
     6  C    0.396698
     7  C   -0.281617
     8  C   -0.175861
     9  C   -0.238307
    10  C   -0.176326
    11  C   -0.278308
    12  C   -0.037606
    13  C   -0.210813
    14  C   -0.207394
    15  C   -0.203307
    16  C   -0.212609
    17  C    0.301328
    18  N   -0.788637
    19  C    0.750925
    20  C   -0.577009
    21  O   -0.626480
    22  H    0.210429
    23  H    0.192064
    24  H    0.156748
    25  H    0.206132
    26  H    0.160076
    27  H    0.190840
    28  H    0.173990
    29  H    0.382837
    30  H    0.208630
    31  H    0.204575
    32  H    0.192970
    33  H    0.202535
    34  H    0.191169
    35  H    0.237350
    36  H    0.206952
    37  H    0.208000
    38  H    0.214921
    39  H    0.190961
    40  H    0.215866
    41  H    0.189563
 Sum of Mulliken charges=   0.00000
 Atomic charges with hydrogens summed into heavy atoms:
              1
     1  C    0.039502
     2  C    0.282881
     3  C   -0.008428
     4  C    0.294852
     5  N   -0.506978
     6  C    0.396698
     7  C   -0.072987
     8  C    0.028715
     9  C   -0.045337
[...]
 9064 Fit       0.007875
 9065 Fit       0.017688
 9066 Fit       0.013997
 9067 Fit       0.011512
 9068 Fit       0.009880
 9069 Fit       0.008888
 9070 Fit       0.008399
 9071 Fit       0.008316
 9072 Fit       0.008553
 9073 Fit       0.008985
 9074 Fit       0.007604
 9075 Fit       0.017287
 9076 Fit       0.014276
 9077 Fit       0.012208
 9078 Fit       0.010831
 9079 Fit       0.009970
 9080 Fit       0.009499
 9081 Fit       0.009297
 9082 Fit       0.009227
 9083 Fit       0.009096
 9084 Fit       0.008646
 9085 Fit       0.007464
 9086 Fit       0.005835
 9087 Fit       0.003817
 9088 Fit       0.018582
 9089 Fit       0.015515
 9090 Fit       0.013348
 9091 Fit       0.011861
 9092 Fit       0.010871
 9093 Fit       0.010223
 9094 Fit       0.009756
 9095 Fit       0.009282
 9096 Fit       0.008585
 9097 Fit       0.007765
 9098 Fit       0.006290
 9099 Fit       0.004634
 9100 Fit       0.003094
 9101 Fit       0.002006
 9102 Fit       0.001640
 9103 Fit       0.002153
 9104 Fit       0.003664
 9105 Fit       0.018944
 9106 Fit       0.016135
 9107 Fit       0.014010
 9108 Fit       0.012474
 9109 Fit       0.011374
 9110 Fit       0.010542
 9111 Fit       0.009790
 9112 Fit       0.008918
 9113 Fit       0.008358
 9114 Fit       0.006996
 9115 Fit       0.005690
 9116 Fit       0.004809
 9117 Fit       0.004727
 9118 Fit       0.005723
 9119 Fit       0.008016
 9120 Fit       0.011736
 9121 Fit       0.019033
 9122 Fit       0.016785
 9123 Fit       0.014675
 9124 Fit       0.012990
 9125 Fit       0.011693
 9126 Fit       0.010620
 9127 Fit       0.009562
 9128 Fit       0.009181
 9129 Fit       0.007931
 9130 Fit       0.007242
 9131 Fit       0.007734
 9132 Fit       0.009787
 9133 Fit       0.013075
 9134 Fit       0.015928
 9135 Fit       0.016540
 9136 Fit       0.015284
 9137 Fit       0.013518
 9138 Fit       0.011926
 9139 Fit       0.010534
 9140 Fit       0.010238
 9141 Fit       0.009495
 9142 Fit       0.010922
 9143 Fit       0.013393
 9144 Fit       0.013532
 9145 Fit       0.011905
 9146 Fit       0.011592
 9147 Fit      -0.007620
 9148 Fit      -0.007586
 9149 Fit      -0.004555
 9150 Fit      -0.006550
 9151 Fit      -0.003473
 9152 Fit      -0.001156
 9153 Fit      -0.009074
 9154 Fit      -0.005369
 9155 Fit      -0.002473
 9156 Fit      -0.000117
 9157 Fit       0.002006
 9158 Fit      -0.011059
 9159 Fit      -0.007133
 9160 Fit      -0.003940
 9161 Fit      -0.001332
 9162 Fit       0.000905
 9163 Fit       0.003051
 9164 Fit      -0.008344
 9165 Fit      -0.005020
 9166 Fit      -0.002268
 9167 Fit       0.000051
 9168 Fit       0.002138
 9169 Fit       0.004275
 9170 Fit      -0.005897
 9171 Fit      -0.003119
 9172 Fit      -0.000771
 9173 Fit       0.001266
 9174 Fit       0.003178
 9175 Fit       0.005237
 9176 Fit      -0.006487
 9177 Fit      -0.003934
 9178 Fit      -0.001683
 9179 Fit       0.000265
 9180 Fit       0.001988
 9181 Fit       0.003623
 9182 Fit      -0.004486
 9183 Fit      -0.002377
 9184 Fit      -0.000501
 9185 Fit       0.001122
 9186 Fit       0.002536
 9187 Fit       0.003807
 9188 Fit      -0.003135
 9189 Fit      -0.001407
 9190 Fit       0.000105
 9191 Fit       0.001346
 9192 Fit       0.002275
 9193 Fit      -0.004980
 9194 Fit      -0.002376
 9195 Fit      -0.000943
 9196 Fit       0.000196
 9197 Fit       0.000880
 9198 Fit      -0.003932
 9199 Fit      -0.002156
 9200 Fit      -0.001005
 9201 Fit      -0.000512
 9202 Fit      -0.003504
 9203 Fit      -0.002461
 9204 Fit       0.002050
 9205 Fit       0.002966
 9206 Fit       0.003666
 9207 Fit       0.004195
 9208 Fit       0.004615
 9209 Fit       0.001974
 9210 Fit       0.003029
 9211 Fit       0.003915
 9212 Fit       0.004638
 9213 Fit       0.005222
 9214 Fit       0.005707
 9215 Fit       0.006158
 9216 Fit       0.006669
 9217 Fit       0.002122
 9218 Fit       0.003102
 9219 Fit       0.004036
 9220 Fit       0.004862
 9221 Fit       0.005561
 9222 Fit       0.006141
 9223 Fit       0.006629
 9224 Fit       0.007077
 9225 Fit       0.007565
 9226 Fit       0.008224
 9227 Fit       0.009275
 9228 Fit       0.003362
 9229 Fit       0.004084
 9230 Fit       0.004867
 9231 Fit       0.005605
 9232 Fit       0.006254
 9233 Fit       0.006804
 9234 Fit       0.007268
 9235 Fit       0.007680
 9236 Fit       0.008095
 9237 Fit       0.008606
 9238 Fit       0.009359
 9239 Fit       0.004399
 9240 Fit       0.004919
 9241 Fit       0.005570
 9242 Fit       0.006219
 9243 Fit       0.006807
 9244 Fit       0.007312
 9245 Fit       0.007738
 9246 Fit       0.008106
 9247 Fit       0.008456
 9248 Fit       0.008857
 9249 Fit       0.009411
 9250 Fit       0.010287
 9251 Fit       0.005133
 9252 Fit       0.005565
 9253 Fit       0.006142
 9254 Fit       0.006730
 9255 Fit       0.007264
 9256 Fit       0.007717
 9257 Fit       0.008091
 9258 Fit       0.008403
 9259 Fit       0.008692
 9260 Fit       0.009020
 9261 Fit       0.009478
 9262 Fit       0.010197
 9263 Fit       0.005403
 9264 Fit       0.005506
 9265 Fit       0.005943
 9266 Fit       0.006493
 9267 Fit       0.007037
 9268 Fit       0.007516
 9269 Fit       0.007906
 9270 Fit       0.008208
 9271 Fit       0.008439
 9272 Fit       0.008638
 9273 Fit       0.008855
 9274 Fit       0.009154
 9275 Fit       0.009589
 9276 Fit       0.005207
 9277 Fit       0.005527
 9278 Fit       0.006020
 9279 Fit       0.006559
 9280 Fit       0.007060
 9281 Fit       0.007475
 9282 Fit       0.007785
 9283 Fit       0.007990
 9284 Fit       0.008103
 9285 Fit       0.008147
 9286 Fit       0.008140
 9287 Fit       0.008068
 9288 Fit       0.004676
 9289 Fit       0.005276
 9290 Fit       0.005884
 9291 Fit       0.006442
 9292 Fit       0.006897
 9293 Fit       0.007215
 9294 Fit       0.007381
 9295 Fit       0.007393
 9296 Fit       0.007251
 9297 Fit       0.006927
 9298 Fit       0.006322
 9299 Fit       0.003929
 9300 Fit       0.004786
 9301 Fit       0.005485
 9302 Fit       0.006026
 9303 Fit       0.006378
 9304 Fit       0.006515
 9305 Fit       0.006416
 9306 Fit       0.006050
 9307 Fit       0.005338
 9308 Fit       0.003046
 9309 Fit       0.004129
 9310 Fit       0.004872
 9311 Fit       0.005295
 9312 Fit       0.005371
 9313 Fit       0.005052
 9314 Fit       0.004255
 9315 Fit       0.002081
 9316 Fit       0.003349
 9317 Fit       0.003933
 9318 Fit       0.003806
 9319 Fit       0.002858
 9320 Fit       0.002208
 9321 Fit       0.005060
 9322 Fit       0.006188
 9323 Fit       0.007053
 9324 Fit       0.004638
 9325 Fit       0.005939
 9326 Fit       0.006945
 9327 Fit       0.007751
 9328 Fit       0.008455
 9329 Fit       0.009170
 9330 Fit       0.006043
 9331 Fit       0.007058
 9332 Fit       0.007873
 9333 Fit       0.008546
 9334 Fit       0.009136
 9335 Fit       0.009725
 9336 Fit       0.010435
 9337 Fit       0.011445
 9338 Fit       0.006402
 9339 Fit       0.007296
 9340 Fit       0.008037
 9341 Fit       0.008662
 9342 Fit       0.009192
 9343 Fit       0.009657
 9344 Fit       0.010100
 9345 Fit       0.010596
 9346 Fit       0.011265
 9347 Fit       0.012295
 9348 Fit       0.007450
 9349 Fit       0.008049
 9350 Fit       0.008599
 9351 Fit       0.009099
 9352 Fit       0.009542
 9353 Fit       0.009928
 9354 Fit       0.010272
 9355 Fit       0.010611
 9356 Fit       0.011013
 9357 Fit       0.011593
 9358 Fit       0.012536
 9359 Fit       0.008735
 9360 Fit       0.008884
 9361 Fit       0.009152
 9362 Fit       0.009472
 9363 Fit       0.009796
 9364 Fit       0.010095
 9365 Fit       0.010356
 9366 Fit       0.010587
 9367 Fit       0.010817
 9368 Fit       0.011102
 9369 Fit       0.011534
 9370 Fit       0.012268
 9371 Fit       0.009739
 9372 Fit       0.009695
 9373 Fit       0.009817
 9374 Fit       0.010007
 9375 Fit       0.010206
 9376 Fit       0.010384
 9377 Fit       0.010530
 9378 Fit       0.010653
 9379 Fit       0.010782
 9380 Fit       0.010971
 9381 Fit       0.011305
 9382 Fit       0.011919
 9383 Fit       0.010199
 9384 Fit       0.009988
 9385 Fit       0.009992
 9386 Fit       0.010086
 9387 Fit       0.010195
 9388 Fit       0.010282
 9389 Fit       0.010330
 9390 Fit       0.010345
 9391 Fit       0.010353
 9392 Fit       0.010396
 9393 Fit       0.010541
 9394 Fit       0.010873
 9395 Fit       0.010686
 9396 Fit       0.010073
 9397 Fit       0.009862
 9398 Fit       0.009832
 9399 Fit       0.009862
 9400 Fit       0.009883
 9401 Fit       0.009859
 9402 Fit       0.009777
 9403 Fit       0.009644
 9404 Fit       0.009480
 9405 Fit       0.009309
 9406 Fit       0.009145
 9407 Fit       0.009915
 9408 Fit       0.009502
 9409 Fit       0.009355
 9410 Fit       0.009310
 9411 Fit       0.009273
 9412 Fit       0.009186
 9413 Fit       0.009020
 9414 Fit       0.008762
 9415 Fit       0.008407
 9416 Fit       0.007944
 9417 Fit       0.007330
 9418 Fit       0.008977
 9419 Fit       0.008652
 9420 Fit       0.008525
 9421 Fit       0.008455
 9422 Fit       0.008345
 9423 Fit       0.008134
 9424 Fit       0.007781
 9425 Fit       0.007257
 9426 Fit       0.006518
 9427 Fit       0.007320
 9428 Fit       0.007319
 9429 Fit       0.007254
 9430 Fit       0.007055
 9431 Fit       0.006662
 9432 Fit       0.006017
 9433 Fit       0.005050
 9434 Fit       0.005728
 9435 Fit       0.005597
 9436 Fit       0.005122
 9437 Fit       0.004225
 9438 Fit       0.011714
 9439 Fit       0.013014
 9440 Fit       0.011842
 9441 Fit       0.012546
 9442 Fit       0.013164
 9443 Fit       0.013763
 9444 Fit       0.012722
 9445 Fit       0.012815
 9446 Fit       0.012962
 9447 Fit       0.013125
 9448 Fit       0.013242
 9449 Fit       0.013243
 9450 Fit       0.013216
 9451 Fit       0.012832
 9452 Fit       0.012629
 9453 Fit       0.012488
 9454 Fit       0.012312
 9455 Fit       0.012011
 9456 Fit       0.011505
 9457 Fit       0.010721
 9458 Fit       0.009619
 9459 Fit       0.012918
 9460 Fit       0.012346
 9461 Fit       0.011966
 9462 Fit       0.011630
 9463 Fit       0.011230
 9464 Fit       0.010680
 9465 Fit       0.009910
 9466 Fit       0.008865
 9467 Fit       0.007521
 9468 Fit       0.012227
 9469 Fit       0.011547
 9470 Fit       0.011051
 9471 Fit       0.010577
 9472 Fit       0.010012
 9473 Fit       0.009274
 9474 Fit       0.008298
 9475 Fit       0.007044
 9476 Fit       0.005493
 9477 Fit       0.003652
 9478 Fit       0.011635
 9479 Fit       0.010772
 9480 Fit       0.010170
 9481 Fit       0.009625
 9482 Fit       0.009005
 9483 Fit       0.008221
 9484 Fit       0.007208
 9485 Fit       0.005920
 9486 Fit       0.004323
 9487 Fit       0.009642
 9488 Fit       0.009038
 9489 Fit       0.008490
 9490 Fit       0.007870
 9491 Fit       0.007093
 9492 Fit       0.006098
 9493 Fit       0.004842
 9494 Fit       0.003279
 9495 Fit       0.007631
 9496 Fit       0.007149
 9497 Fit       0.006564
 9498 Fit       0.005796
 9499 Fit       0.004791
 9500 Fit       0.003520
 9501 Fit       0.005435
 9502 Fit       0.004989
 9503 Fit       0.004296
 9504 Fit       0.003342
 9505 Fit       0.005393
 9506 Fit       0.004826
 9507 Fit       0.003875
 9508 Fit       0.002529
 9509 Fit       0.006386
 9510 Fit       0.006349
 9511 Fit       0.006002
 9512 Fit       0.005294
 9513 Fit       0.004193
 9514 Fit       0.002673
 9515 Fit       0.000717
 9516 Fit       0.006782
 9517 Fit       0.007157
 9518 Fit       0.007300
 9519 Fit       0.007147
 9520 Fit       0.006664
 9521 Fit       0.005829
 9522 Fit       0.004616
 9523 Fit       0.002992
 9524 Fit       0.000909
 9525 Fit      -0.001702
 9526 Fit       0.007037
 9527 Fit       0.007740
 9528 Fit       0.008183
 9529 Fit       0.008304
 9530 Fit       0.008082
 9531 Fit       0.007510
 9532 Fit       0.006576
 9533 Fit       0.005258
 9534 Fit       0.003513
 9535 Fit       0.001268
 9536 Fit      -0.001591
 9537 Fit       0.008151
 9538 Fit       0.008958
 9539 Fit       0.009373
 9540 Fit       0.009404
 9541 Fit       0.009074
 9542 Fit       0.008396
 9543 Fit       0.007368
 9544 Fit       0.005970
 9545 Fit       0.004155
 9546 Fit       0.001840
 9547 Fit      -0.001114
 9548 Fit      -0.004942
 9549 Fit       0.008770
 9550 Fit       0.009959
 9551 Fit       0.010591
 9552 Fit       0.010741
 9553 Fit       0.010484
 9554 Fit       0.009867
 9555 Fit       0.008913
 9556 Fit       0.007617
 9557 Fit       0.005948
 9558 Fit       0.003838
 9559 Fit       0.001170
 9560 Fit      -0.002254
 9561 Fit      -0.006786
 9562 Fit       0.011857
 9563 Fit       0.012348
 9564 Fit       0.012252
 9565 Fit       0.011710
 9566 Fit       0.010800
 9567 Fit       0.009553
 9568 Fit       0.007958
 9569 Fit       0.005967
 9570 Fit       0.003483
 9571 Fit       0.000335
 9572 Fit      -0.003784
 9573 Fit       0.013717
 9574 Fit       0.012591
 9575 Fit       0.011138
 9576 Fit       0.009365
 9577 Fit       0.007226
 9578 Fit       0.004619
 9579 Fit       0.001361
 9580 Fit      -0.002874
 9581 Fit       0.013161
 9582 Fit       0.011109
 9583 Fit       0.008791
 9584 Fit       0.006106
 9585 Fit       0.002892
 9586 Fit       0.010898
 9587 Fit       0.007944
 9588 Fit       0.004664
 9589 Fit       0.001102
 9590 Fit       0.001373
 9591 Fit       0.002015
 9592 Fit       0.001741
 9593 Fit       0.000711
 9594 Fit      -0.000140
 9595 Fit       0.000253
 9596 Fit       0.001552
 9597 Fit       0.002326
 9598 Fit       0.002687
 9599 Fit       0.002657
 9600 Fit       0.002225
 9601 Fit       0.001370
 9602 Fit       0.000184
 9603 Fit      -0.001035
 9604 Fit      -0.001814
 9605 Fit      -0.001749
 9606 Fit      -0.000859
 9607 Fit       0.000406
 9608 Fit       0.001680
 9609 Fit       0.002471
 9610 Fit       0.002964
 9611 Fit       0.003207
 9612 Fit       0.003237
 9613 Fit       0.003053
 9614 Fit       0.002618
 9615 Fit       0.001881
 9616 Fit       0.000829
 9617 Fit      -0.000482
 9618 Fit      -0.001905
 9619 Fit      -0.003197
 9620 Fit      -0.004043
 9621 Fit      -0.004176
 9622 Fit      -0.003527
 9623 Fit      -0.002290
 9624 Fit      -0.000817
 9625 Fit       0.000567
 9626 Fit       0.001817
 9627 Fit       0.002645
 9628 Fit       0.003201
 9629 Fit       0.003533
 9630 Fit       0.003306
 9631 Fit       0.002798
 9632 Fit       0.002005
 9633 Fit       0.000902
 9634 Fit      -0.000492
 9635 Fit      -0.002113
 9636 Fit      -0.003836
 9637 Fit      -0.005461
 9638 Fit      -0.006713
 9639 Fit      -0.007309
 9640 Fit      -0.007068
 9641 Fit      -0.006019
 9642 Fit      -0.004402
 9643 Fit      -0.002562
 9644 Fit      -0.000808
 9645 Fit       0.000672
 9646 Fit       0.002047
 9647 Fit       0.001770
 9648 Fit       0.000422
 9649 Fit      -0.001247
 9650 Fit      -0.003191
 9651 Fit      -0.005327
 9652 Fit      -0.007504
 9653 Fit      -0.009475
 9654 Fit      -0.010921
 9655 Fit      -0.011523
 9656 Fit      -0.011093
 9657 Fit      -0.009680
 9658 Fit      -0.007566
 9659 Fit      -0.005153
 9660 Fit      -0.002814
 9661 Fit      -0.000790
 9662 Fit       0.000825
 9663 Fit      -0.000061
 9664 Fit      -0.002052
 9665 Fit      -0.004362
 9666 Fit      -0.006951
 9667 Fit      -0.009724
 9668 Fit      -0.012488
 9669 Fit      -0.014933
 9670 Fit      -0.016661
 9671 Fit      -0.017288
 9672 Fit      -0.016604
 9673 Fit      -0.014682
 9674 Fit      -0.011872
 9675 Fit      -0.008664
 9676 Fit      -0.005521
 9677 Fit      -0.002761
 9678 Fit      -0.000524
 9679 Fit       0.001194
 9680 Fit      -0.005661
 9681 Fit      -0.008975
 9682 Fit      -0.012658
 9683 Fit      -0.016551
 9684 Fit      -0.020314
 9685 Fit      -0.015099
 9686 Fit      -0.010452
 9687 Fit      -0.006236
 9688 Fit      -0.002767
 9689 Fit      -0.011110
 9690 Fit      -0.015912
 9691 Fit      -0.021272
 9692 Fit       0.004434
 9693 Fit       0.004676
 9694 Fit       0.004732
 9695 Fit       0.004697
 9696 Fit       0.004658
 9697 Fit       0.004879
 9698 Fit       0.005055
 9699 Fit       0.005024
 9700 Fit       0.004900
 9701 Fit       0.004786
 9702 Fit       0.004735
 9703 Fit       0.004445
 9704 Fit       0.005460
 9705 Fit       0.005488
 9706 Fit       0.005282
 9707 Fit       0.004995
 9708 Fit       0.004754
 9709 Fit       0.004624
 9710 Fit       0.004625
 9711 Fit       0.004750
 9712 Fit       0.005111
 9713 Fit       0.006158
 9714 Fit       0.005941
 9715 Fit       0.005458
 9716 Fit       0.004915
 9717 Fit       0.004474
 9718 Fit       0.004210
 9719 Fit       0.004142
 9720 Fit       0.004257
 9721 Fit       0.004532
 9722 Fit       0.005469
 9723 Fit       0.005986
 9724 Fit       0.006976
 9725 Fit       0.006329
 9726 Fit       0.005363
 9727 Fit       0.004413
 9728 Fit       0.003693
 9729 Fit       0.003277
 9730 Fit       0.003166
 9731 Fit       0.003334
 9732 Fit       0.003744
 9733 Fit       0.004355
 9734 Fit       0.006688
 9735 Fit       0.007068
 9736 Fit       0.006534
 9737 Fit       0.004853
 9738 Fit       0.003349
 9739 Fit       0.002268
 9740 Fit       0.001647
 9741 Fit       0.001457
 9742 Fit       0.001665
 9743 Fit       0.002228
 9744 Fit       0.003089
 9745 Fit       0.004188
 9746 Fit       0.008263
 9747 Fit       0.003399
 9748 Fit       0.001242
 9749 Fit      -0.000210
 9750 Fit      -0.001029
 9751 Fit      -0.001286
 9752 Fit      -0.000997
 9753 Fit      -0.000178
 9754 Fit       0.001105
 9755 Fit       0.002744
 9756 Fit      -0.004280
 -----------------------------------------------------------------
 Leave Link  602 at Wed Sep 23 18:46:09 2015, MaxMem=    6291456 cpu:       7.5

 Test job not archived.
 1\1\GINC-COMPUTE-2-11\FOpt\RHF\6-31G(d)\C18H20N2O1\SHUNZHOU\23-Sep-201
 5\0\\#HF/6-31G* SCF=tight Test Pop=MK iop(6/33=2) iop(6/42=6) opt\\rem
 ark line goes here\\0,1\C,14.9325869369,6.0887930759,9.9119022897\C,14
 .0098264916,5.1108069247,9.1904208842\C,14.7939124829,4.1196500897,8.3
 077922285\C,14.0998240425,2.7544412931,8.2264878322\N,14.7976213807,1.
 8810392692,7.306877883\C,14.1308180159,0.9678413288,6.4935067015\C,12.
 8939589661,0.4281358496,6.8401558014\C,12.2797712625,-0.4985861375,6.0
 116175432\C,12.8753301865,-0.91320937,4.8347714455\C,14.1110859693,-0.
 3829119486,4.4926930059\C,14.7315325898,0.5444446419,5.3052089419\C,14
 .0515148195,2.2310866169,9.6509307282\C,14.5250900934,0.994349057,10.0
 516145055\C,14.5144552563,0.640742219,11.3934005733\C,14.0639683511,1.
 5405618544,12.3424306119\C,13.6152809486,2.7934145446,11.9539249648\C,
 13.5797904802,3.1264711929,10.6097072171\N,13.1384972671,4.3908156787,
 10.1402681586\C,11.9354098255,4.9678457075,10.448670129\C,10.910149050
 3,4.1673927852,11.227519717\O,11.6742359702,6.0846861924,10.0894588534
 \H,13.3402605847,5.6726505723,8.5591549858\H,13.0829028822,2.915537761
 ,7.8750587334\H,15.5667947026,6.6082530264,9.1987928311\H,14.350903895
 ,6.8263428082,10.4498908998\H,15.5738632718,5.5655428677,10.6149003462
 \H,14.8997670949,4.5502197128,7.3162191062\H,15.7941900084,3.966065992
 1,8.7032313195\H,15.5757939887,2.3103896657,6.8586537668\H,12.41574714
 67,0.7123494248,7.7583747508\H,11.3243737689,-0.9003697019,6.300258417
 4\H,12.3928047801,-1.632768658,4.1989365442\H,14.5951300193,-0.6898912
 356,3.5822344095\H,15.689408678,0.9477889461,5.0230919326\H,14.9039612
 728,0.3130227381,9.3141550582\H,14.8736786064,-0.3268749753,11.6945332
 745\H,14.0772868095,1.2805934977,13.3856585121\H,13.3043523959,3.50879
 10322,12.6923225326\H,11.0481472819,4.3180689362,12.292239577\H,9.9398
 267915,4.560248315,10.9592187608\H,10.9501456338,3.1062284091,11.02671
 42255\\Version=AM64L-G03RevD.02\State=1-A\HF=-877.0574705\RMSD=9.153e-
 09\RMSF=9.823e-06\Thermal=0.\Dipole=0.7005412,-0.7831101,0.1450023\PG=
 C01 [X(C18H20N2O1)]\\@


 In the beginning the Universe was created.
 This has made a lot of people very angry
 and been widely regarded as a bad move.
                               -D.Adams
 Job cpu time:  0 days  2 hours 38 minutes 34.3 seconds.
 File lengths (MBytes):  RWF=     91 Int=      0 D2E=      0 Chk=     15 Scr=      1
 Normal termination of Gaussian 03 at Wed Sep 23 18:46:09 2015.
