 Entering Gaussian System, Link 0=g03
 Initial command:
 /share/apps//g03/l1.exe /state/partition1/mmpbsa.tZ6564/Gau-6583.inp -scrdir=/state/partition1/mmpbsa.tZ6564/
 Entering Link 1 = /share/apps//g03/l1.exe PID=      6588.
  
 Copyright (c) 1988,1990,1992,1993,1995,1998,2003,2004, Gaussian, Inc.
                  All Rights Reserved.
  
 This is the Gaussian(R) 03 program.  It is based on the
 the Gaussian(R) 98 system (copyright 1998, Gaussian, Inc.),
 the Gaussian(R) 94 system (copyright 1995, Gaussian, Inc.),
 the Gaussian 92(TM) system (copyright 1992, Gaussian, Inc.),
 the Gaussian 90(TM) system (copyright 1990, Gaussian, Inc.),
 the Gaussian 88(TM) system (copyright 1988, Gaussian, Inc.),
 the Gaussian 86(TM) system (copyright 1986, Carnegie Mellon
 University), and the Gaussian 82(TM) system (copyright 1983,
 Carnegie Mellon University). Gaussian is a federally registered
 trademark of Gaussian, Inc.
  
 This software contains proprietary and confidential information,
 including trade secrets, belonging to Gaussian, Inc.
  
 This software is provided under written license and may be
 used, copied, transmitted, or stored only in accord with that
 written license.
  
 The following legend is applicable only to US Government
 contracts under FAR:
  
                    RESTRICTED RIGHTS LEGEND
  
 Use, reproduction and disclosure by the US Government is
 subject to restrictions as set forth in subparagraphs (a)
 and (c) of the Commercial Computer Software - Restricted
 Rights clause in FAR 52.227-19.
  
 Gaussian, Inc.
 340 Quinnipiac St., Bldg. 40, Wallingford CT 06492
  
  
 ---------------------------------------------------------------
 Warning -- This program may not be used in any manner that
 competes with the business of Gaussian, Inc. or will provide
 assistance to any competitor of Gaussian, Inc.  The licensee
 of this program is prohibited from giving any competitor of
 Gaussian, Inc. access to this program.  By using this program,
 the user acknowledges that Gaussian, Inc. is engaged in the
 business of creating and licensing software in the field of
 computational chemistry and represents and warrants to the
 licensee that it is not a competitor of Gaussian, Inc. and that
 it will not use this program in any manner prohibited above.
 ---------------------------------------------------------------
  

 Cite this work as:
 Gaussian 03, Revision D.02,
 M. J. Frisch, G. W. Trucks, H. B. Schlegel, G. E. Scuseria, 
 M. A. Robb, J. R. Cheeseman, J. A. Montgomery, Jr., T. Vreven, 
 K. N. Kudin, J. C. Burant, J. M. Millam, S. S. Iyengar, J. Tomasi, 
 V. Barone, B. Mennucci, M. Cossi, G. Scalmani, N. Rega, 
 G. A. Petersson, H. Nakatsuji, M. Hada, M. Ehara, K. Toyota, 
 R. Fukuda, J. Hasegawa, M. Ishida, T. Nakajima, Y. Honda, O. Kitao, 
 H. Nakai, M. Klene, X. Li, J. E. Knox, H. P. Hratchian, J. B. Cross, 
 V. Bakken, C. Adamo, J. Jaramillo, R. Gomperts, R. E. Stratmann, 
 O. Yazyev, A. J. Austin, R. Cammi, C. Pomelli, J. W. Ochterski, 
 P. Y. Ayala, K. Morokuma, G. A. Voth, P. Salvador, J. J. Dannenberg, 
 V. G. Zakrzewski, S. Dapprich, A. D. Daniels, M. C. Strain, 
 O. Farkas, D. K. Malick, A. D. Rabuck, K. Raghavachari, 
 J. B. Foresman, J. V. Ortiz, Q. Cui, A. G. Baboul, S. Clifford, 
 J. Cioslowski, B. B. Stefanov, G. Liu, A. Liashenko, P. Piskorz, 
 I. Komaromi, R. L. Martin, D. J. Fox, T. Keith, M. A. Al-Laham, 
 C. Y. Peng, A. Nanayakkara, M. Challacombe, P. M. W. Gill, 
 B. Johnson, W. Chen, M. W. Wong, C. Gonzalez, and J. A. Pople, 
 Gaussian, Inc., Wallingford CT, 2004.
 
 ******************************************
 Gaussian 03:  AM64L-G03RevD.02  1-Mar-2006
                23-Sep-2015 
 ******************************************
 %chk=molecule
 ------------------------------------------------------------
 #HF/6-31G* SCF=tight Test Pop=MK iop(6/33=2) iop(6/42=6) opt
 ------------------------------------------------------------
 1/18=20,38=1/1,3;
 2/9=110,17=6,18=5,40=1/2;
 3/5=1,6=6,7=1,11=9,16=1,25=1,30=1/1,2,3;
 4//1;
 5/5=2,32=2,38=5/2;
 6/7=2,8=2,9=2,10=2,15=8,20=1,28=1,33=2,42=6/1,2;
 7//1,2,3,16;
 1/18=20/3(3);
 2/9=110/2;
 6/7=2,8=2,9=2,10=2,15=8,19=2,20=1,28=1,33=2,42=6/1,2;
 99//99;
 2/9=110/2;
 3/5=1,6=6,7=1,11=9,16=1,25=1,30=1/1,2,3;
 4/5=5,16=3/1;
 5/5=2,32=2,38=5/2;
 7//1,2,3,16;
 1/18=20/3(-5);
 2/9=110/2;
 6/7=2,8=2,9=2,10=2,15=8,19=2,20=1,28=1,33=2,42=6/1,2;
 99/9=1/99;
 ---------------------
 remark line goes here
 ---------------------
 Symbolic Z-matrix:
 Charge =  0 Multiplicity = 1
 C                     17.59    -0.34      13.753 
 O                     16.509   -0.102     12.861 
 C                     15.864   -1.185     12.295 
 C                     16.247   -2.525     12.549 
 C                     15.569   -3.588     11.933 
 C                     14.501   -3.331     11.059 
 C                     14.097   -2.        10.791 
 O                     13.044   -1.692     9.951 
 C                     12.415   -2.744     9.231 
 C                     14.782   -0.922     11.413 
 C                     14.372    0.471     11.133 
 C                     13.952    1.331     12.169 
 C                     13.563    2.656     11.896 
 C                     13.556    3.142     10.568 
 N                     13.173    4.49      10.252 
 C                     13.964    5.209     9.216 
 C                     14.915    6.237     9.86 
 C                     14.735    4.269     8.252 
 C                     14.074    2.891     8.12 
 N                     14.752    2.081     7.109 
 C                     14.155    0.965     6.502 
 C                     14.915    0.234     5.566 
 C                     14.372   -0.899     4.927 
 C                     13.059   -1.311     5.218 
 C                     12.291   -0.588     6.15 
 C                     12.834    0.544     6.79 
 C                     14.002    2.299     9.524 
 C                     14.406    0.976     9.816 
 C                     12.019    5.062     10.705 
 C                     10.982    4.229     11.464 
 O                     11.735    6.248     10.498 
 H                     13.264    5.754     8.579 
 H                     13.05     3.061     7.781 
 H                     17.272   -0.913     14.625 
 H                     18.411   -0.861     13.258 
 H                     17.978    0.613     14.113 
 H                     17.064   -2.769     13.212 
 H                     15.869   -4.607     12.133 
 H                     14.006   -4.179     10.61 
 H                     11.641   -2.326     8.588 
 H                     13.124   -3.272     8.591 
 H                     11.932   -3.456     9.902 
 H                     13.938    0.973     13.19 
 H                     13.281    3.292     12.722 
 H                     15.476    6.782     9.099 
 H                     14.373    6.974     10.451 
 H                     15.636    5.751     10.518 
 H                     14.826    4.748     7.276 
 H                     15.755    4.13      8.617 
 H                     15.712    2.317     6.881 
 H                     15.927    0.532     5.327 
 H                     14.966   -1.451     4.213 
 H                     12.641   -2.18      4.729 
 H                     11.282   -0.902     6.379 
 H                     12.218    1.065     7.508 
 H                     14.754    0.326     9.027 
 H                     11.217    4.192     12.527 
 H                     9.994     4.678     11.363 
 H                     10.915    3.214     11.075 
 

 GradGradGradGradGradGradGradGradGradGradGradGradGradGradGradGradGradGrad
 Berny optimization.
 Initialization pass.
                           ----------------------------
                           !    Initial Parameters    !
                           ! (Angstroms and Degrees)  !
 --------------------------                            --------------------------
 ! Name  Definition              Value          Derivative Info.                !
 --------------------------------------------------------------------------------
 ! R1    R(1,2)                  1.4216         estimate D2E/DX2                !
 ! R2    R(1,34)                 1.0908         estimate D2E/DX2                !
 ! R3    R(1,35)                 1.0911         estimate D2E/DX2                !
 ! R4    R(1,36)                 1.0901         estimate D2E/DX2                !
 ! R5    R(2,3)                  1.3818         estimate D2E/DX2                !
 ! R6    R(3,4)                  1.4166         estimate D2E/DX2                !
 ! R7    R(3,10)                 1.4205         estimate D2E/DX2                !
 ! R8    R(4,5)                  1.4032         estimate D2E/DX2                !
 ! R9    R(4,37)                 1.0801         estimate D2E/DX2                !
 ! R10   R(5,6)                  1.4038         estimate D2E/DX2                !
 ! R11   R(5,38)                 1.0809         estimate D2E/DX2                !
 ! R12   R(6,7)                  1.4165         estimate D2E/DX2                !
 ! R13   R(6,39)                 1.0797         estimate D2E/DX2                !
 ! R14   R(7,8)                  1.3818         estimate D2E/DX2                !
 ! R15   R(7,10)                 1.4206         estimate D2E/DX2                !
 ! R16   R(8,9)                  1.4215         estimate D2E/DX2                !
 ! R17   R(9,40)                 1.0896         estimate D2E/DX2                !
 ! R18   R(9,41)                 1.0914         estimate D2E/DX2                !
 ! R19   R(9,42)                 1.0911         estimate D2E/DX2                !
 ! R20   R(10,11)                1.4788         estimate D2E/DX2                !
 ! R21   R(11,12)                1.4104         estimate D2E/DX2                !
 ! R22   R(11,28)                1.4109         estimate D2E/DX2                !
 ! R23   R(12,13)                1.4076         estimate D2E/DX2                !
 ! R24   R(12,43)                1.082          estimate D2E/DX2                !
 ! R25   R(13,14)                1.4142         estimate D2E/DX2                !
 ! R26   R(13,44)                1.08           estimate D2E/DX2                !
 ! R27   R(14,15)                1.4365         estimate D2E/DX2                !
 ! R28   R(14,27)                1.414          estimate D2E/DX2                !
 ! R29   R(15,16)                1.4886         estimate D2E/DX2                !
 ! R30   R(15,29)                1.3653         estimate D2E/DX2                !
 ! R31   R(16,17)                1.5414         estimate D2E/DX2                !
 ! R32   R(16,18)                1.5516         estimate D2E/DX2                !
 ! R33   R(16,32)                1.0922         estimate D2E/DX2                !
 ! R34   R(17,45)                1.0913         estimate D2E/DX2                !
 ! R35   R(17,46)                1.0891         estimate D2E/DX2                !
 ! R36   R(17,47)                1.0904         estimate D2E/DX2                !
 ! R37   R(18,19)                1.534          estimate D2E/DX2                !
 ! R38   R(18,48)                1.091          estimate D2E/DX2                !
 ! R39   R(18,49)                1.0922         estimate D2E/DX2                !
 ! R40   R(19,20)                1.4622         estimate D2E/DX2                !
 ! R41   R(19,27)                1.5254         estimate D2E/DX2                !
 ! R42   R(19,33)                1.092          estimate D2E/DX2                !
 ! R43   R(20,21)                1.4037         estimate D2E/DX2                !
 ! R44   R(20,50)                1.0145         estimate D2E/DX2                !
 ! R45   R(21,22)                1.41           estimate D2E/DX2                !
 ! R46   R(21,26)                1.4161         estimate D2E/DX2                !
 ! R47   R(22,23)                1.4096         estimate D2E/DX2                !
 ! R48   R(22,51)                1.0817         estimate D2E/DX2                !
 ! R49   R(23,24)                1.4066         estimate D2E/DX2                !
 ! R50   R(23,52)                1.0804         estimate D2E/DX2                !
 ! R51   R(24,25)                1.4075         estimate D2E/DX2                !
 ! R52   R(24,53)                1.0812         estimate D2E/DX2                !
 ! R53   R(25,26)                1.4092         estimate D2E/DX2                !
 ! R54   R(25,54)                1.0813         estimate D2E/DX2                !
 ! R55   R(26,55)                1.08           estimate D2E/DX2                !
 ! R56   R(27,28)                1.4138         estimate D2E/DX2                !
 ! R57   R(28,56)                1.0799         estimate D2E/DX2                !
 ! R58   R(29,30)                1.5314         estimate D2E/DX2                !
 ! R59   R(29,31)                1.237          estimate D2E/DX2                !
 ! R60   R(30,57)                1.0893         estimate D2E/DX2                !
 ! R61   R(30,58)                1.0899         estimate D2E/DX2                !
 ! R62   R(30,59)                1.0891         estimate D2E/DX2                !
 ! A1    A(2,1,34)             111.5845         estimate D2E/DX2                !
 ! A2    A(2,1,35)             111.559          estimate D2E/DX2                !
 ! A3    A(2,1,36)             109.3604         estimate D2E/DX2                !
 ! A4    A(34,1,35)            109.3416         estimate D2E/DX2                !
 ! A5    A(34,1,36)            107.3972         estimate D2E/DX2                !
 ! A6    A(35,1,36)            107.4241         estimate D2E/DX2                !
 ! A7    A(1,2,3)              118.7356         estimate D2E/DX2                !
 ! A8    A(2,3,4)              122.8023         estimate D2E/DX2                !
 ! A9    A(2,3,10)             117.6962         estimate D2E/DX2                !
 ! A10   A(4,3,10)             119.4983         estimate D2E/DX2                !
 ! A11   A(3,4,5)              120.4787         estimate D2E/DX2                !
 ! A12   A(3,4,37)             121.8878         estimate D2E/DX2                !
 ! A13   A(5,4,37)             117.633          estimate D2E/DX2                !
 ! A14   A(4,5,6)              120.1473         estimate D2E/DX2                !
 ! A15   A(4,5,38)             119.9218         estimate D2E/DX2                !
 ! A16   A(6,5,38)             119.9309         estimate D2E/DX2                !
 ! A17   A(5,6,7)              120.451          estimate D2E/DX2                !
 ! A18   A(5,6,39)             117.6412         estimate D2E/DX2                !
 ! A19   A(7,6,39)             121.9074         estimate D2E/DX2                !
 ! A20   A(6,7,8)              122.8062         estimate D2E/DX2                !
 ! A21   A(6,7,10)             119.5142         estimate D2E/DX2                !
 ! A22   A(8,7,10)             117.6765         estimate D2E/DX2                !
 ! A23   A(7,8,9)              118.6953         estimate D2E/DX2                !
 ! A24   A(8,9,40)             109.2268         estimate D2E/DX2                !
 ! A25   A(8,9,41)             111.5677         estimate D2E/DX2                !
 ! A26   A(8,9,42)             111.5501         estimate D2E/DX2                !
 ! A27   A(40,9,41)            107.5184         estimate D2E/DX2                !
 ! A28   A(40,9,42)            107.3853         estimate D2E/DX2                !
 ! A29   A(41,9,42)            109.4216         estimate D2E/DX2                !
 ! A30   A(3,10,7)             119.9101         estimate D2E/DX2                !
 ! A31   A(3,10,11)            120.208          estimate D2E/DX2                !
 ! A32   A(7,10,11)            119.8806         estimate D2E/DX2                !
 ! A33   A(10,11,12)           121.1874         estimate D2E/DX2                !
 ! A34   A(10,11,28)           120.4778         estimate D2E/DX2                !
 ! A35   A(12,11,28)           118.3315         estimate D2E/DX2                !
 ! A36   A(11,12,13)           120.916          estimate D2E/DX2                !
 ! A37   A(11,12,43)           119.6837         estimate D2E/DX2                !
 ! A38   A(13,12,43)           119.3969         estimate D2E/DX2                !
 ! A39   A(12,13,14)           120.4631         estimate D2E/DX2                !
 ! A40   A(12,13,44)           118.5655         estimate D2E/DX2                !
 ! A41   A(14,13,44)           120.9686         estimate D2E/DX2                !
 ! A42   A(13,14,15)           122.031          estimate D2E/DX2                !
 ! A43   A(13,14,27)           119.1362         estimate D2E/DX2                !
 ! A44   A(15,14,27)           118.7576         estimate D2E/DX2                !
 ! A45   A(14,15,16)           117.6879         estimate D2E/DX2                !
 ! A46   A(14,15,29)           123.058          estimate D2E/DX2                !
 ! A47   A(16,15,29)           118.5342         estimate D2E/DX2                !
 ! A48   A(15,16,17)           111.0509         estimate D2E/DX2                !
 ! A49   A(15,16,18)           113.8177         estimate D2E/DX2                !
 ! A50   A(15,16,32)           107.8405         estimate D2E/DX2                !
 ! A51   A(17,16,18)           110.9192         estimate D2E/DX2                !
 ! A52   A(17,16,32)           107.8374         estimate D2E/DX2                !
 ! A53   A(18,16,32)           104.9774         estimate D2E/DX2                !
 ! A54   A(16,17,45)           111.0322         estimate D2E/DX2                !
 ! A55   A(16,17,46)           111.776          estimate D2E/DX2                !
 ! A56   A(16,17,47)           111.2735         estimate D2E/DX2                !
 ! A57   A(45,17,46)           107.2347         estimate D2E/DX2                !
 ! A58   A(45,17,47)           107.667          estimate D2E/DX2                !
 ! A59   A(46,17,47)           107.6501         estimate D2E/DX2                !
 ! A60   A(16,18,19)           112.5548         estimate D2E/DX2                !
 ! A61   A(16,18,48)           109.346          estimate D2E/DX2                !
 ! A62   A(16,18,49)           109.4833         estimate D2E/DX2                !
 ! A63   A(19,18,48)           110.6925         estimate D2E/DX2                !
 ! A64   A(19,18,49)           108.4717         estimate D2E/DX2                !
 ! A65   A(48,18,49)           106.0773         estimate D2E/DX2                !
 ! A66   A(18,19,20)           110.936          estimate D2E/DX2                !
 ! A67   A(18,19,27)           106.8436         estimate D2E/DX2                !
 ! A68   A(18,19,33)           106.9141         estimate D2E/DX2                !
 ! A69   A(20,19,27)           116.3149         estimate D2E/DX2                !
 ! A70   A(20,19,33)           107.8437         estimate D2E/DX2                !
 ! A71   A(27,19,33)           107.5715         estimate D2E/DX2                !
 ! A72   A(19,20,21)           122.8355         estimate D2E/DX2                !
 ! A73   A(19,20,50)           117.7295         estimate D2E/DX2                !
 ! A74   A(21,20,50)           119.3545         estimate D2E/DX2                !
 ! A75   A(20,21,22)           118.035          estimate D2E/DX2                !
 ! A76   A(20,21,26)           123.0372         estimate D2E/DX2                !
 ! A77   A(22,21,26)           118.9277         estimate D2E/DX2                !
 ! A78   A(21,22,23)           120.6653         estimate D2E/DX2                !
 ! A79   A(21,22,51)           120.5393         estimate D2E/DX2                !
 ! A80   A(23,22,51)           118.7953         estimate D2E/DX2                !
 ! A81   A(22,23,24)           120.0833         estimate D2E/DX2                !
 ! A82   A(22,23,52)           119.8981         estimate D2E/DX2                !
 ! A83   A(24,23,52)           120.0186         estimate D2E/DX2                !
 ! A84   A(23,24,25)           119.7273         estimate D2E/DX2                !
 ! A85   A(23,24,53)           120.1818         estimate D2E/DX2                !
 ! A86   A(25,24,53)           120.0909         estimate D2E/DX2                !
 ! A87   A(24,25,26)           120.2047         estimate D2E/DX2                !
 ! A88   A(24,25,54)           120.0156         estimate D2E/DX2                !
 ! A89   A(26,25,54)           119.7795         estimate D2E/DX2                !
 ! A90   A(21,26,25)           120.3917         estimate D2E/DX2                !
 ! A91   A(21,26,55)           121.5919         estimate D2E/DX2                !
 ! A92   A(25,26,55)           118.0122         estimate D2E/DX2                !
 ! A93   A(14,27,19)           117.5854         estimate D2E/DX2                !
 ! A94   A(14,27,28)           119.7042         estimate D2E/DX2                !
 ! A95   A(19,27,28)           122.6687         estimate D2E/DX2                !
 ! A96   A(11,28,27)           121.3888         estimate D2E/DX2                !
 ! A97   A(11,28,56)           118.3159         estimate D2E/DX2                !
 ! A98   A(27,28,56)           120.2949         estimate D2E/DX2                !
 ! A99   A(15,29,30)           120.5899         estimate D2E/DX2                !
 ! A100  A(15,29,31)           122.6985         estimate D2E/DX2                !
 ! A101  A(30,29,31)           116.6787         estimate D2E/DX2                !
 ! A102  A(29,30,57)           110.8571         estimate D2E/DX2                !
 ! A103  A(29,30,58)           110.1092         estimate D2E/DX2                !
 ! A104  A(29,30,59)           111.8128         estimate D2E/DX2                !
 ! A105  A(57,30,58)           107.4566         estimate D2E/DX2                !
 ! A106  A(57,30,59)           109.2799         estimate D2E/DX2                !
 ! A107  A(58,30,59)           107.162          estimate D2E/DX2                !
 ! D1    D(34,1,2,3)           -60.8458         estimate D2E/DX2                !
 ! D2    D(35,1,2,3)            61.7886         estimate D2E/DX2                !
 ! D3    D(36,1,2,3)          -179.5198         estimate D2E/DX2                !
 ! D4    D(1,2,3,4)             -1.0145         estimate D2E/DX2                !
 ! D5    D(1,2,3,10)           179.6448         estimate D2E/DX2                !
 ! D6    D(2,3,4,5)           -179.11           estimate D2E/DX2                !
 ! D7    D(2,3,4,37)             0.6291         estimate D2E/DX2                !
 ! D8    D(10,3,4,5)             0.2193         estimate D2E/DX2                !
 ! D9    D(10,3,4,37)          179.9584         estimate D2E/DX2                !
 ! D10   D(2,3,10,7)           179.1653         estimate D2E/DX2                !
 ! D11   D(2,3,10,11)           -0.424          estimate D2E/DX2                !
 ! D12   D(4,3,10,7)            -0.198          estimate D2E/DX2                !
 ! D13   D(4,3,10,11)         -179.7873         estimate D2E/DX2                !
 ! D14   D(3,4,5,6)             -0.1014         estimate D2E/DX2                !
 ! D15   D(3,4,5,38)           179.9794         estimate D2E/DX2                !
 ! D16   D(37,4,5,6)          -179.8513         estimate D2E/DX2                !
 ! D17   D(37,4,5,38)            0.2295         estimate D2E/DX2                !
 ! D18   D(4,5,6,7)             -0.0388         estimate D2E/DX2                !
 ! D19   D(4,5,6,39)          -179.801          estimate D2E/DX2                !
 ! D20   D(38,5,6,7)           179.8804         estimate D2E/DX2                !
 ! D21   D(38,5,6,39)            0.1182         estimate D2E/DX2                !
 ! D22   D(5,6,7,8)           -179.2812         estimate D2E/DX2                !
 ! D23   D(5,6,7,10)             0.0586         estimate D2E/DX2                !
 ! D24   D(39,6,7,8)             0.4706         estimate D2E/DX2                !
 ! D25   D(39,6,7,10)          179.8104         estimate D2E/DX2                !
 ! D26   D(6,7,8,9)             -5.8212         estimate D2E/DX2                !
 ! D27   D(10,7,8,9)           174.8275         estimate D2E/DX2                !
 ! D28   D(6,7,10,3)             0.0607         estimate D2E/DX2                !
 ! D29   D(6,7,10,11)          179.6514         estimate D2E/DX2                !
 ! D30   D(8,7,10,3)           179.4341         estimate D2E/DX2                !
 ! D31   D(8,7,10,11)           -0.9752         estimate D2E/DX2                !
 ! D32   D(7,8,9,40)          -177.5006         estimate D2E/DX2                !
 ! D33   D(7,8,9,41)           -58.7727         estimate D2E/DX2                !
 ! D34   D(7,8,9,42)            63.9469         estimate D2E/DX2                !
 ! D35   D(3,10,11,12)         -59.3487         estimate D2E/DX2                !
 ! D36   D(3,10,11,28)         119.9912         estimate D2E/DX2                !
 ! D37   D(7,10,11,12)         121.0619         estimate D2E/DX2                !
 ! D38   D(7,10,11,28)         -59.5982         estimate D2E/DX2                !
 ! D39   D(10,11,12,13)        179.9971         estimate D2E/DX2                !
 ! D40   D(10,11,12,43)          0.6696         estimate D2E/DX2                !
 ! D41   D(28,11,12,13)          0.6434         estimate D2E/DX2                !
 ! D42   D(28,11,12,43)       -178.6841         estimate D2E/DX2                !
 ! D43   D(10,11,28,27)        179.1721         estimate D2E/DX2                !
 ! D44   D(10,11,28,56)         -1.05           estimate D2E/DX2                !
 ! D45   D(12,11,28,27)         -1.4695         estimate D2E/DX2                !
 ! D46   D(12,11,28,56)        178.3084         estimate D2E/DX2                !
 ! D47   D(11,12,13,14)          1.5022         estimate D2E/DX2                !
 ! D48   D(11,12,13,44)       -177.8977         estimate D2E/DX2                !
 ! D49   D(43,12,13,14)       -179.1683         estimate D2E/DX2                !
 ! D50   D(43,12,13,44)          1.4317         estimate D2E/DX2                !
 ! D51   D(12,13,14,15)       -179.6197         estimate D2E/DX2                !
 ! D52   D(12,13,14,27)         -2.814          estimate D2E/DX2                !
 ! D53   D(44,13,14,15)         -0.2343         estimate D2E/DX2                !
 ! D54   D(44,13,14,27)        176.5714         estimate D2E/DX2                !
 ! D55   D(13,14,15,16)        139.4589         estimate D2E/DX2                !
 ! D56   D(13,14,15,29)        -50.4185         estimate D2E/DX2                !
 ! D57   D(27,14,15,16)        -37.3585         estimate D2E/DX2                !
 ! D58   D(27,14,15,29)        132.7641         estimate D2E/DX2                !
 ! D59   D(13,14,27,19)       -175.7244         estimate D2E/DX2                !
 ! D60   D(13,14,27,28)          1.9887         estimate D2E/DX2                !
 ! D61   D(15,14,27,19)          1.1868         estimate D2E/DX2                !
 ! D62   D(15,14,27,28)        178.8998         estimate D2E/DX2                !
 ! D63   D(14,15,16,17)       -104.1856         estimate D2E/DX2                !
 ! D64   D(14,15,16,18)         21.8364         estimate D2E/DX2                !
 ! D65   D(14,15,16,32)        137.866          estimate D2E/DX2                !
 ! D66   D(29,15,16,17)         85.2332         estimate D2E/DX2                !
 ! D67   D(29,15,16,18)       -148.7448         estimate D2E/DX2                !
 ! D68   D(29,15,16,32)        -32.7152         estimate D2E/DX2                !
 ! D69   D(14,15,29,30)         -6.7456         estimate D2E/DX2                !
 ! D70   D(14,15,29,31)        175.413          estimate D2E/DX2                !
 ! D71   D(16,15,29,30)        163.2979         estimate D2E/DX2                !
 ! D72   D(16,15,29,31)        -14.5435         estimate D2E/DX2                !
 ! D73   D(15,16,17,45)       -178.534          estimate D2E/DX2                !
 ! D74   D(15,16,17,46)        -58.8357         estimate D2E/DX2                !
 ! D75   D(15,16,17,47)         61.5566         estimate D2E/DX2                !
 ! D76   D(18,16,17,45)         53.8504         estimate D2E/DX2                !
 ! D77   D(18,16,17,46)        173.5487         estimate D2E/DX2                !
 ! D78   D(18,16,17,47)        -66.0591         estimate D2E/DX2                !
 ! D79   D(32,16,17,45)        -60.5838         estimate D2E/DX2                !
 ! D80   D(32,16,17,46)         59.1145         estimate D2E/DX2                !
 ! D81   D(32,16,17,47)        179.5068         estimate D2E/DX2                !
 ! D82   D(15,16,18,19)         26.232          estimate D2E/DX2                !
 ! D83   D(15,16,18,48)        149.6908         estimate D2E/DX2                !
 ! D84   D(15,16,18,49)        -94.4889         estimate D2E/DX2                !
 ! D85   D(17,16,18,19)        152.3234         estimate D2E/DX2                !
 ! D86   D(17,16,18,48)        -84.2178         estimate D2E/DX2                !
 ! D87   D(17,16,18,49)         31.6024         estimate D2E/DX2                !
 ! D88   D(32,16,18,19)        -91.4625         estimate D2E/DX2                !
 ! D89   D(32,16,18,48)         31.9962         estimate D2E/DX2                !
 ! D90   D(32,16,18,49)        147.8165         estimate D2E/DX2                !
 ! D91   D(16,18,19,20)        174.5096         estimate D2E/DX2                !
 ! D92   D(16,18,19,27)        -57.7749         estimate D2E/DX2                !
 ! D93   D(16,18,19,33)         57.1705         estimate D2E/DX2                !
 ! D94   D(48,18,19,20)         51.804          estimate D2E/DX2                !
 ! D95   D(48,18,19,27)        179.5195         estimate D2E/DX2                !
 ! D96   D(48,18,19,33)        -65.5352         estimate D2E/DX2                !
 ! D97   D(49,18,19,20)        -64.1907         estimate D2E/DX2                !
 ! D98   D(49,18,19,27)         63.5248         estimate D2E/DX2                !
 ! D99   D(49,18,19,33)        178.4702         estimate D2E/DX2                !
 ! D100  D(18,19,20,21)       -160.7565         estimate D2E/DX2                !
 ! D101  D(18,19,20,50)         22.5309         estimate D2E/DX2                !
 ! D102  D(27,19,20,21)         76.8781         estimate D2E/DX2                !
 ! D103  D(27,19,20,50)        -99.8345         estimate D2E/DX2                !
 ! D104  D(33,19,20,21)        -43.9871         estimate D2E/DX2                !
 ! D105  D(33,19,20,50)        139.3003         estimate D2E/DX2                !
 ! D106  D(18,19,27,14)         45.2388         estimate D2E/DX2                !
 ! D107  D(18,19,27,28)       -132.4014         estimate D2E/DX2                !
 ! D108  D(20,19,27,14)        169.7265         estimate D2E/DX2                !
 ! D109  D(20,19,27,28)         -7.9138         estimate D2E/DX2                !
 ! D110  D(33,19,27,14)        -69.2633         estimate D2E/DX2                !
 ! D111  D(33,19,27,28)        113.0964         estimate D2E/DX2                !
 ! D112  D(19,20,21,22)       -178.2638         estimate D2E/DX2                !
 ! D113  D(19,20,21,26)          1.579          estimate D2E/DX2                !
 ! D114  D(50,20,21,22)         -1.6024         estimate D2E/DX2                !
 ! D115  D(50,20,21,26)        178.2405         estimate D2E/DX2                !
 ! D116  D(20,21,22,23)        179.7651         estimate D2E/DX2                !
 ! D117  D(20,21,22,51)         -0.1033         estimate D2E/DX2                !
 ! D118  D(26,21,22,23)         -0.0843         estimate D2E/DX2                !
 ! D119  D(26,21,22,51)       -179.9528         estimate D2E/DX2                !
 ! D120  D(20,21,26,25)       -179.8195         estimate D2E/DX2                !
 ! D121  D(20,21,26,55)         -0.5717         estimate D2E/DX2                !
 ! D122  D(22,21,26,25)          0.022          estimate D2E/DX2                !
 ! D123  D(22,21,26,55)        179.2698         estimate D2E/DX2                !
 ! D124  D(21,22,23,24)          0.0976         estimate D2E/DX2                !
 ! D125  D(21,22,23,52)       -179.8972         estimate D2E/DX2                !
 ! D126  D(51,22,23,24)        179.9683         estimate D2E/DX2                !
 ! D127  D(51,22,23,52)         -0.0265         estimate D2E/DX2                !
 ! D128  D(22,23,24,25)         -0.047          estimate D2E/DX2                !
 ! D129  D(22,23,24,53)       -179.9823         estimate D2E/DX2                !
 ! D130  D(52,23,24,25)        179.9478         estimate D2E/DX2                !
 ! D131  D(52,23,24,53)          0.0125         estimate D2E/DX2                !
 ! D132  D(23,24,25,26)         -0.0149         estimate D2E/DX2                !
 ! D133  D(23,24,25,54)       -179.8507         estimate D2E/DX2                !
 ! D134  D(53,24,25,26)        179.9204         estimate D2E/DX2                !
 ! D135  D(53,24,25,54)          0.0847         estimate D2E/DX2                !
 ! D136  D(24,25,26,21)          0.0274         estimate D2E/DX2                !
 ! D137  D(24,25,26,55)       -179.2469         estimate D2E/DX2                !
 ! D138  D(54,25,26,21)        179.8635         estimate D2E/DX2                !
 ! D139  D(54,25,26,55)          0.5893         estimate D2E/DX2                !
 ! D140  D(14,27,28,11)          0.1513         estimate D2E/DX2                !
 ! D141  D(14,27,28,56)       -179.6223         estimate D2E/DX2                !
 ! D142  D(19,27,28,11)        177.7434         estimate D2E/DX2                !
 ! D143  D(19,27,28,56)         -2.0302         estimate D2E/DX2                !
 ! D144  D(15,29,30,57)         86.1524         estimate D2E/DX2                !
 ! D145  D(15,29,30,58)       -155.0735         estimate D2E/DX2                !
 ! D146  D(15,29,30,59)        -36.0611         estimate D2E/DX2                !
 ! D147  D(31,29,30,57)        -95.8804         estimate D2E/DX2                !
 ! D148  D(31,29,30,58)         22.8936         estimate D2E/DX2                !
 ! D149  D(31,29,30,59)        141.906          estimate D2E/DX2                !
 --------------------------------------------------------------------------------
 Trust Radius=3.00D-01 FncErr=1.00D-07 GrdErr=1.00D-07
 Number of steps in this run= 328 maximum allowed number of steps= 354.
 GradGradGradGradGradGradGradGradGradGradGradGradGradGradGradGradGradGrad

 Stoichiometry    C26H28N2O3
 Framework group  C1[X(C26H28N2O3)]
 Deg. of freedom   171
 Full point group                 C1
 Largest Abelian subgroup         C1      NOp   1
 Largest concise Abelian subgroup C1      NOp   1
                         Standard orientation:                         
 ---------------------------------------------------------------------
 Center     Atomic     Atomic              Coordinates (Angstroms)
 Number     Number      Type              X           Y           Z
 ---------------------------------------------------------------------
    1          6             0       -2.838876   -4.276440   -1.992593
    2          8             0       -2.209001   -3.239822   -1.251276
    3          6             0       -3.000733   -2.328134   -0.579521
    4          6             0       -4.416342   -2.368800   -0.614189
    5          6             0       -5.173044   -1.406507    0.071744
    6          6             0       -4.530964   -0.393937    0.801802
    7          6             0       -3.116690   -0.333399    0.854394
    8          8             0       -2.434785    0.632635    1.569277
    9          6             0       -3.176282    1.680775    2.179466
   10          6             0       -2.348265   -1.306142    0.160502
   11          6             0       -0.871279   -1.246070    0.203555
   12          6             0       -0.110818   -2.322848    0.705095
   13          6             0        1.294887   -2.259579    0.743366
   14          6             0        1.972411   -1.097545    0.306940
   15          7             0        3.405508   -0.999569    0.323782
   16          6             0        4.067458   -0.341025   -0.835563
   17          6             0        4.720396   -1.382689   -1.765363
   18          6             0        3.134368    0.606896   -1.634390
   19          6             0        1.995244    1.171869   -0.776235
   20          7             0        1.216495    2.157326   -1.524787
   21          6             0        0.388094    3.104491   -0.902738
   22          6             0       -0.346671    3.983651   -1.724477
   23          6             0       -1.199295    4.952994   -1.158557
   24          6             0       -1.323368    5.053222    0.238924
   25          6             0       -0.593700    4.181338    1.068731
   26          6             0        0.257808    3.211256    0.503268
   27          6             0        1.223226   -0.022505   -0.224579
   28          6             0       -0.187192   -0.107592   -0.272430
   29          6             0        4.159579   -1.298259    1.422084
   30          6             0        3.491689   -1.614626    2.763418
   31          8             0        5.396421   -1.291339    1.405474
   32          1             0        4.859006    0.303472   -0.447146
   33          1             0        2.458612    1.684042    0.069558
   34          1             0       -3.449068   -4.914255   -1.351740
   35          1             0       -3.457180   -3.875236   -2.797107
   36          1             0       -2.077005   -4.907696   -2.450219
   37          1             0       -4.952018   -3.127973   -1.164917
   38          1             0       -6.252735   -1.445876    0.038909
   39          1             0       -5.152397    0.323247    1.316776
   40          1             0       -2.487542    2.374357    2.660953
   41          1             0       -3.751304    2.246176    1.444118
   42          1             0       -3.847925    1.300269    2.950559
   43          1             0       -0.612059   -3.215312    1.055904
   44          1             0        1.840894   -3.119160    1.102940
   45          1             0        5.227602   -0.898127   -2.601310
   46          1             0        5.463037   -1.982796   -1.241369
   47          1             0        3.976946   -2.064376   -2.179594
   48          1             0        3.725767    1.413771   -2.069704
   49          1             0        2.697524    0.064251   -2.475610
   50          1             0        1.247166    2.112446   -2.537864
   51          1             0       -0.267429    3.924568   -2.801649
   52          1             0       -1.757843    5.619295   -1.799965
   53          1             0       -1.977130    5.795981    0.674710
   54          1             0       -0.687400    4.252688    2.143555
   55          1             0        0.791344    2.552603    1.172548
   56          1             0       -0.768379    0.705205   -0.681951
   57          1             0        3.231112   -2.670353    2.827465
   58          1             0        4.175789   -1.396377    3.583370
   59          1             0        2.597667   -1.013313    2.922103
 ---------------------------------------------------------------------
 Rotational constants (GHZ):      0.1616520      0.1186388      0.0836637
 Standard basis: 6-31G(d) (6D, 7F)
 There are   521 symmetry adapted basis functions of A   symmetry.
 Integral buffers will be    131072 words long.
 Raffenetti 1 integral format.
 Two-electron integral symmetry is turned on.
   521 basis functions,   980 primitive gaussians,   521 cartesian basis functions
   111 alpha electrons      111 beta electrons
       nuclear repulsion energy      3062.8364554145 Hartrees.
 NAtoms=   59 NActive=   59 NUniq=   59 SFac= 7.50D-01 NAtFMM=   80 NAOKFM=F Big=F
 One-electron integrals computed using PRISM.
 NBasis=   521 RedAO= T  NBF=   521
 NBsUse=   521 1.00D-06 NBFU=   521
 Harris functional with IExCor=  205 diagonalized for initial guess.
 ExpMin= 1.61D-01 ExpMax= 5.48D+03 ExpMxC= 8.25D+02 IAcc=1 IRadAn=         1 AccDes= 1.00D-06
 HarFok:  IExCor= 205 AccDes= 1.00D-06 IRadAn=         1 IDoV=1
 ScaDFX=  1.000000  1.000000  1.000000  1.000000
 Initial guess orbital symmetries:
       Occupied  (A) (A) (A) (A) (A) (A) (A) (A) (A) (A) (A) (A)
                 (A) (A) (A) (A) (A) (A) (A) (A) (A) (A) (A) (A)
                 (A) (A) (A) (A) (A) (A) (A) (A) (A) (A) (A) (A)
                 (A) (A) (A) (A) (A) (A) (A) (A) (A) (A) (A) (A)
                 (A) (A) (A) (A) (A) (A) (A) (A) (A) (A) (A) (A)
                 (A) (A) (A) (A) (A) (A) (A) (A) (A) (A) (A) (A)
                 (A) (A) (A) (A) (A) (A) (A) (A) (A) (A) (A) (A)
                 (A) (A) (A) (A) (A) (A) (A) (A) (A) (A) (A) (A)
                 (A) (A) (A) (A) (A) (A) (A) (A) (A) (A) (A) (A)
                 (A) (A) (A)
       Virtual   (A) (A) (A) (A) (A) (A) (A) (A) (A) (A) (A) (A)
                 (A) (A) (A) (A) (A) (A) (A) (A) (A) (A) (A) (A)
                 (A) (A) (A) (A) (A) (A) (A) (A) (A) (A) (A) (A)
                 (A) (A) (A) (A) (A) (A) (A) (A) (A) (A) (A) (A)
                 (A) (A) (A) (A) (A) (A) (A) (A) (A) (A) (A) (A)
                 (A) (A) (A) (A) (A) (A) (A) (A) (A) (A) (A) (A)
                 (A) (A) (A) (A) (A) (A) (A) (A) (A) (A) (A) (A)
                 (A) (A) (A) (A) (A) (A) (A) (A) (A) (A) (A) (A)
                 (A) (A) (A) (A) (A) (A) (A) (A) (A) (A) (A) (A)
                 (A) (A) (A) (A) (A) (A) (A) (A) (A) (A) (A) (A)
                 (A) (A) (A) (A) (A) (A) (A) (A) (A) (A) (A) (A)
                 (A) (A) (A) (A) (A) (A) (A) (A) (A) (A) (A) (A)
                 (A) (A) (A) (A) (A) (A) (A) (A) (A) (A) (A) (A)
                 (A) (A) (A) (A) (A) (A) (A) (A) (A) (A) (A) (A)
                 (A) (A) (A) (A) (A) (A) (A) (A) (A) (A) (A) (A)
                 (A) (A) (A) (A) (A) (A) (A) (A) (A) (A) (A) (A)
                 (A) (A) (A) (A) (A) (A) (A) (A) (A) (A) (A) (A)
                 (A) (A) (A) (A) (A) (A) (A) (A) (A) (A) (A) (A)
                 (A) (A) (A) (A) (A) (A) (A) (A) (A) (A) (A) (A)
                 (A) (A) (A) (A) (A) (A) (A) (A) (A) (A) (A) (A)
                 (A) (A) (A) (A) (A) (A) (A) (A) (A) (A) (A) (A)
                 (A) (A) (A) (A) (A) (A) (A) (A) (A) (A) (A) (A)
                 (A) (A) (A) (A) (A) (A) (A) (A) (A) (A) (A) (A)
                 (A) (A) (A) (A) (A) (A) (A) (A) (A) (A) (A) (A)
                 (A) (A) (A) (A) (A) (A) (A) (A) (A) (A) (A) (A)
                 (A) (A) (A) (A) (A) (A) (A) (A) (A) (A) (A) (A)
                 (A) (A) (A) (A) (A) (A) (A) (A) (A) (A) (A) (A)
                 (A) (A) (A) (A) (A) (A) (A) (A) (A) (A) (A) (A)
                 (A) (A) (A) (A) (A) (A) (A) (A) (A) (A) (A) (A)
                 (A) (A) (A) (A) (A) (A) (A) (A) (A) (A) (A) (A)
                 (A) (A) (A) (A) (A) (A) (A) (A) (A) (A) (A) (A)
                 (A) (A) (A) (A) (A) (A) (A) (A) (A) (A) (A) (A)
                 (A) (A) (A) (A) (A) (A) (A) (A) (A) (A) (A) (A)
                 (A) (A) (A) (A) (A) (A) (A) (A) (A) (A) (A) (A)
                 (A) (A)
 The electronic state of the initial guess is 1-A.
 Requested convergence on RMS density matrix=1.00D-08 within 128 cycles.
 Requested convergence on MAX density matrix=1.00D-06.
 Requested convergence on             energy=1.00D-06.
 No special actions if energy rises.
 Integral accuracy reduced to 1.0D-05 until final iterations.
 Initial convergence to 1.0D-05 achieved.  Increase integral accuracy.
 SCF Done:  E(RHF) =  -1334.33356401     A.U. after   16 cycles
             Convg  =    0.5675D-08             -V/T =  2.0027
             S**2   =   0.0000

 **********************************************************************

            Population analysis using the SCF density.

 **********************************************************************

 Orbital symmetries:
 BldTbl:  Degeneracy threshold= 1.00D-02
       Occupied  (A) (A) (A) (A) (A) (A) (A) (A) (A) (A) (A) (A)
                 (A) (A) (A) (A) (A) (A) (A) (A) (A) (A) (A) (A)
                 (A) (A) (A) (A) (A) (A) (A) (A) (A) (A) (A) (A)
                 (A) (A) (A) (A) (A) (A) (A) (A) (A) (A) (A) (A)
                 (A) (A) (A) (A) (A) (A) (A) (A) (A) (A) (A) (A)
                 (A) (A) (A) (A) (A) (A) (A) (A) (A) (A) (A) (A)
                 (A) (A) (A) (A) (A) (A) (A) (A) (A) (A) (A) (A)
                 (A) (A) (A) (A) (A) (A) (A) (A) (A) (A) (A) (A)
                 (A) (A) (A) (A) (A) (A) (A) (A) (A) (A) (A) (A)
                 (A) (A) (A)
       Virtual   (A) (A) (A) (A) (A) (A) (A) (A) (A) (A) (A) (A)
                 (A) (A) (A) (A) (A) (A) (A) (A) (A) (A) (A) (A)
                 (A) (A) (A) (A) (A) (A) (A) (A) (A) (A) (A) (A)
                 (A) (A) (A) (A) (A) (A) (A) (A) (A) (A) (A) (A)
                 (A) (A) (A) (A) (A) (A) (A) (A) (A) (A) (A) (A)
                 (A) (A) (A) (A) (A) (A) (A) (A) (A) (A) (A) (A)
                 (A) (A) (A) (A) (A) (A) (A) (A) (A) (A) (A) (A)
                 (A) (A) (A) (A) (A) (A) (A) (A) (A) (A) (A) (A)
                 (A) (A) (A) (A) (A) (A) (A) (A) (A) (A) (A) (A)
                 (A) (A) (A) (A) (A) (A) (A) (A) (A) (A) (A) (A)
                 (A) (A) (A) (A) (A) (A) (A) (A) (A) (A) (A) (A)
                 (A) (A) (A) (A) (A) (A) (A) (A) (A) (A) (A) (A)
                 (A) (A) (A) (A) (A) (A) (A) (A) (A) (A) (A) (A)
                 (A) (A) (A) (A) (A) (A) (A) (A) (A) (A) (A) (A)
                 (A) (A) (A) (A) (A) (A) (A) (A) (A) (A) (A) (A)
                 (A) (A) (A) (A) (A) (A) (A) (A) (A) (A) (A) (A)
                 (A) (A) (A) (A) (A) (A) (A) (A) (A) (A) (A) (A)
                 (A) (A) (A) (A) (A) (A) (A) (A) (A) (A) (A) (A)
                 (A) (A) (A) (A) (A) (A) (A) (A) (A) (A) (A) (A)
                 (A) (A) (A) (A) (A) (A) (A) (A) (A) (A) (A) (A)
                 (A) (A) (A) (A) (A) (A) (A) (A) (A) (A) (A) (A)
                 (A) (A) (A) (A) (A) (A) (A) (A) (A) (A) (A) (A)
                 (A) (A) (A) (A) (A) (A) (A) (A) (A) (A) (A) (A)
                 (A) (A) (A) (A) (A) (A) (A) (A) (A) (A) (A) (A)
                 (A) (A) (A) (A) (A) (A) (A) (A) (A) (A) (A) (A)
                 (A) (A) (A) (A) (A) (A) (A) (A) (A) (A) (A) (A)
                 (A) (A) (A) (A) (A) (A) (A) (A) (A) (A) (A) (A)
                 (A) (A) (A) (A) (A) (A) (A) (A) (A) (A) (A) (A)
                 (A) (A) (A) (A) (A) (A) (A) (A) (A) (A) (A) (A)
                 (A) (A) (A) (A) (A) (A) (A) (A) (A) (A) (A) (A)
                 (A) (A) (A) (A) (A) (A) (A) (A) (A) (A) (A) (A)
                 (A) (A) (A) (A) (A) (A) (A) (A) (A) (A) (A) (A)
                 (A) (A) (A) (A) (A) (A) (A) (A) (A) (A) (A) (A)
                 (A) (A) (A) (A) (A) (A) (A) (A) (A) (A) (A) (A)
                 (A) (A)
 The electronic state is 1-A.
 Alpha  occ. eigenvalues --  -20.59389 -20.59030 -20.51224 -15.59690 -15.57099
 Alpha  occ. eigenvalues --  -11.34681 -11.31446 -11.31348 -11.28833 -11.28419
 Alpha  occ. eigenvalues --  -11.28272 -11.27977 -11.27733 -11.27381 -11.24916
 Alpha  occ. eigenvalues --  -11.24018 -11.23872 -11.23797 -11.23762 -11.23745
 Alpha  occ. eigenvalues --  -11.23539 -11.23486 -11.23199 -11.23142 -11.23076
 Alpha  occ. eigenvalues --  -11.22953 -11.22525 -11.22488 -11.22396 -11.22058
 Alpha  occ. eigenvalues --  -11.20900  -1.40252  -1.39825  -1.36155  -1.25549
 Alpha  occ. eigenvalues --   -1.23368  -1.14937  -1.12837  -1.12014  -1.07481
 Alpha  occ. eigenvalues --   -1.05299  -1.01926  -1.01085  -1.00233  -0.99420
 Alpha  occ. eigenvalues --   -0.98697  -0.97523  -0.95040  -0.94779  -0.92942
 Alpha  occ. eigenvalues --   -0.87674  -0.85437  -0.83902  -0.82534  -0.80687
 Alpha  occ. eigenvalues --   -0.80291  -0.79811  -0.77565  -0.74158  -0.71913
 Alpha  occ. eigenvalues --   -0.70937  -0.68528  -0.68154  -0.67363  -0.66592
 Alpha  occ. eigenvalues --   -0.66295  -0.65795  -0.65511  -0.65025  -0.64664
 Alpha  occ. eigenvalues --   -0.63493  -0.62020  -0.61726  -0.60951  -0.60768
 Alpha  occ. eigenvalues --   -0.59881  -0.58892  -0.58037  -0.57875  -0.57638
 Alpha  occ. eigenvalues --   -0.57050  -0.56505  -0.56418  -0.55164  -0.54618
 Alpha  occ. eigenvalues --   -0.54304  -0.53137  -0.52547  -0.52390  -0.52080
 Alpha  occ. eigenvalues --   -0.50847  -0.50265  -0.50076  -0.49864  -0.49600
 Alpha  occ. eigenvalues --   -0.49032  -0.48242  -0.47884  -0.47047  -0.46812
 Alpha  occ. eigenvalues --   -0.46151  -0.44505  -0.41618  -0.40629  -0.39340
 Alpha  occ. eigenvalues --   -0.33169  -0.32942  -0.31752  -0.30747  -0.28459
 Alpha  occ. eigenvalues --   -0.27829
 Alpha virt. eigenvalues --    0.11525   0.14119   0.14477   0.15777   0.16009
 Alpha virt. eigenvalues --    0.16518   0.20729   0.22815   0.23078   0.23577
 Alpha virt. eigenvalues --    0.24052   0.24471   0.25217   0.25671   0.26778
 Alpha virt. eigenvalues --    0.28113   0.28620   0.29271   0.29773   0.30136
 Alpha virt. eigenvalues --    0.30354   0.30920   0.31259   0.31382   0.32027
 Alpha virt. eigenvalues --    0.32195   0.32675   0.32774   0.32925   0.33309
 Alpha virt. eigenvalues --    0.33628   0.34596   0.34786   0.35060   0.35349
 Alpha virt. eigenvalues --    0.35747   0.36707   0.37545   0.37839   0.38098
 Alpha virt. eigenvalues --    0.38130   0.39338   0.40225   0.42105   0.43020
 Alpha virt. eigenvalues --    0.43799   0.44310   0.44780   0.46250   0.46709
 Alpha virt. eigenvalues --    0.46959   0.47434   0.49218   0.49868   0.50310
 Alpha virt. eigenvalues --    0.51932   0.53026   0.53751   0.54393   0.55214
 Alpha virt. eigenvalues --    0.55819   0.57060   0.58212   0.59707   0.61917
 Alpha virt. eigenvalues --    0.63178   0.66459   0.68205   0.68956   0.69803
 Alpha virt. eigenvalues --    0.70479   0.71389   0.72647   0.73096   0.73274
 Alpha virt. eigenvalues --    0.73889   0.74234   0.74278   0.74396   0.74994
 Alpha virt. eigenvalues --    0.75780   0.76025   0.76449   0.77841   0.78166
 Alpha virt. eigenvalues --    0.78350   0.78829   0.79546   0.79958   0.80261
 Alpha virt. eigenvalues --    0.80563   0.81306   0.81714   0.82303   0.82531
 Alpha virt. eigenvalues --    0.83043   0.83478   0.84016   0.84309   0.84586
 Alpha virt. eigenvalues --    0.84912   0.85532   0.86377   0.86735   0.87270
 Alpha virt. eigenvalues --    0.88491   0.88931   0.89495   0.89832   0.90426
 Alpha virt. eigenvalues --    0.91056   0.91667   0.92333   0.93113   0.94110
 Alpha virt. eigenvalues --    0.94956   0.95482   0.96266   0.96566   0.98120
 Alpha virt. eigenvalues --    0.98566   0.98998   0.99862   1.01898   1.02321
 Alpha virt. eigenvalues --    1.03735   1.04612   1.05249   1.06385   1.06974
 Alpha virt. eigenvalues --    1.08489   1.09199   1.09824   1.10533   1.10993
 Alpha virt. eigenvalues --    1.11148   1.11590   1.12049   1.12273   1.12470
 Alpha virt. eigenvalues --    1.12678   1.12922   1.13049   1.13435   1.14034
 Alpha virt. eigenvalues --    1.14208   1.14680   1.15391   1.15946   1.16575
 Alpha virt. eigenvalues --    1.17086   1.17450   1.17629   1.17998   1.18250
 Alpha virt. eigenvalues --    1.19235   1.19648   1.19877   1.20364   1.20505
 Alpha virt. eigenvalues --    1.20725   1.21150   1.21315   1.22060   1.23112
 Alpha virt. eigenvalues --    1.23746   1.23989   1.24482   1.24893   1.25631
 Alpha virt. eigenvalues --    1.25739   1.27077   1.28244   1.29088   1.29600
 Alpha virt. eigenvalues --    1.30082   1.30307   1.31738   1.31874   1.32769
 Alpha virt. eigenvalues --    1.33709   1.35106   1.36476   1.37405   1.37943
 Alpha virt. eigenvalues --    1.39134   1.40510   1.41290   1.42077   1.42125
 Alpha virt. eigenvalues --    1.43616   1.44379   1.45062   1.46255   1.47909
 Alpha virt. eigenvalues --    1.49086   1.49325   1.50089   1.50440   1.51648
 Alpha virt. eigenvalues --    1.52695   1.54386   1.57512   1.57843   1.59020
 Alpha virt. eigenvalues --    1.60410   1.61411   1.63202   1.64056   1.65108
 Alpha virt. eigenvalues --    1.65484   1.66068   1.66713   1.67734   1.70682
 Alpha virt. eigenvalues --    1.71364   1.71794   1.72741   1.73655   1.73963
 Alpha virt. eigenvalues --    1.74791   1.75212   1.77200   1.77792   1.77984
 Alpha virt. eigenvalues --    1.78397   1.78833   1.79643   1.79819   1.81881
 Alpha virt. eigenvalues --    1.82057   1.82543   1.84666   1.86453   1.88403
 Alpha virt. eigenvalues --    1.92713   1.94717   1.96460   1.97019   1.98730
 Alpha virt. eigenvalues --    1.99534   2.01873   2.02505   2.03460   2.05262
 Alpha virt. eigenvalues --    2.05983   2.06200   2.08374   2.09087   2.09947
 Alpha virt. eigenvalues --    2.10952   2.11124   2.12302   2.12743   2.13020
 Alpha virt. eigenvalues --    2.13493   2.14563   2.15145   2.16670   2.17063
 Alpha virt. eigenvalues --    2.17698   2.18825   2.21468   2.22183   2.22810
 Alpha virt. eigenvalues --    2.24305   2.24510   2.24796   2.24902   2.25233
 Alpha virt. eigenvalues --    2.25622   2.26554   2.26597   2.27863   2.29222
 Alpha virt. eigenvalues --    2.30060   2.31025   2.31782   2.32080   2.33248
 Alpha virt. eigenvalues --    2.34737   2.36583   2.37243   2.37786   2.39244
 Alpha virt. eigenvalues --    2.40703   2.41108   2.41774   2.42709   2.42866
 Alpha virt. eigenvalues --    2.43735   2.44308   2.44767   2.45985   2.47010
 Alpha virt. eigenvalues --    2.47305   2.47644   2.48704   2.50256   2.51067
 Alpha virt. eigenvalues --    2.51894   2.52628   2.54630   2.54950   2.55231
 Alpha virt. eigenvalues --    2.56723   2.56958   2.57242   2.57418   2.57925
 Alpha virt. eigenvalues --    2.59369   2.60346   2.61481   2.62004   2.62455
 Alpha virt. eigenvalues --    2.63150   2.65483   2.66720   2.68244   2.68532
 Alpha virt. eigenvalues --    2.69185   2.70189   2.71983   2.73191   2.73757
 Alpha virt. eigenvalues --    2.74544   2.78214   2.78942   2.81406   2.82660
 Alpha virt. eigenvalues --    2.82867   2.84442   2.86236   2.87527   2.88365
 Alpha virt. eigenvalues --    2.89303   2.90924   2.92287   2.93459   2.94564
 Alpha virt. eigenvalues --    2.95673   2.96281   2.97274   2.98199   2.98678
 Alpha virt. eigenvalues --    3.00749   3.01165   3.02000   3.02814   3.04777
 Alpha virt. eigenvalues --    3.05981   3.08240   3.08875   3.09137   3.09843
 Alpha virt. eigenvalues --    3.11681   3.14076   3.14883   3.15206   3.16641
 Alpha virt. eigenvalues --    3.17409   3.18400   3.22651   3.24786   3.28003
 Alpha virt. eigenvalues --    3.29456   3.31733   3.32702   3.37321   3.39320
 Alpha virt. eigenvalues --    3.40909   3.42554   3.52981   3.56494   3.59578
 Alpha virt. eigenvalues --    3.65295   3.75126   3.77248   3.82867   4.45032
 Alpha virt. eigenvalues --    4.47683   4.49143   4.49468   4.51617   4.53162
 Alpha virt. eigenvalues --    4.54817   4.55328   4.56909   4.59213   4.61888
 Alpha virt. eigenvalues --    4.62205   4.63699   4.65717   4.67154   4.72665
 Alpha virt. eigenvalues --    4.73489   4.76514   4.77006   4.80447   4.81982
 Alpha virt. eigenvalues --    4.83860   4.86590   4.91512   4.94875   4.97690
 Alpha virt. eigenvalues --    5.01548   5.10824   5.14978   5.20179   5.31295
          Condensed to atoms (all electrons):
 Mulliken atomic charges:
              1
     1  C   -0.184007
     2  O   -0.669627
     3  C    0.462831
     4  C   -0.302891
     5  C   -0.165255
     6  C   -0.300906
     7  C    0.467331
     8  O   -0.667974
     9  C   -0.179061
    10  C   -0.183058
    11  C    0.055474
    12  C   -0.182864
    13  C   -0.221567
    14  C    0.301580
    15  N   -0.790665
    16  C    0.073672
    17  C   -0.482955
    18  C   -0.369170
    19  C    0.102309
    20  N   -0.888718
    21  C    0.395915
    22  C   -0.276924
    23  C   -0.176647
    24  C   -0.241710
    25  C   -0.180242
    26  C   -0.266979
    27  C   -0.046083
    28  C   -0.193749
    29  C    0.751054
    30  C   -0.576527
    31  O   -0.630940
    32  H    0.208446
    33  H    0.189274
    34  H    0.163185
    35  H    0.164641
    36  H    0.193924
    37  H    0.204233
    38  H    0.211165
    39  H    0.205900
    40  H    0.190761
    41  H    0.168760
    42  H    0.157873
    43  H    0.211889
    44  H    0.210279
    45  H    0.154261
    46  H    0.204891
    47  H    0.160573
    48  H    0.189085
    49  H    0.172027
    50  H    0.381512
    51  H    0.191308
    52  H    0.200881
    53  H    0.188804
    54  H    0.197822
    55  H    0.212791
    56  H    0.239342
    57  H    0.190374
    58  H    0.212432
    59  H    0.191922
 Sum of Mulliken charges=   0.00000
 Atomic charges with hydrogens summed into heavy atoms:
              1
     1  C    0.337743
     2  O   -0.669627
     3  C    0.462831
     4  C   -0.098657
     5  C    0.045910
     6  C   -0.095005
     7  C    0.467331
     8  O   -0.667974
     9  C    0.338333
    10  C   -0.183058
    11  C    0.055474
    12  C    0.029026
    13  C   -0.011289
    14  C    0.301580
    15  N   -0.790665
    16  C    0.282118
    17  C    0.036770
    18  C   -0.008058
    19  C    0.291583
    20  N   -0.507206
    21  C    0.395915
    22  C   -0.085616
    23  C    0.024234
    24  C   -0.052906
    25  C    0.017580
    26  C   -0.054188
    27  C   -0.046083
    28  C    0.045593
    29  C    0.751054
    30  C    0.018201
    31  O   -0.630940
    32  H    0.000000
    33  H    0.000000
    34  H    0.000000
    35  H    0.000000
    36  H    0.000000
    37  H    0.000000
    38  H    0.000000
    39  H    0.000000
    40  H    0.000000
    41  H    0.000000
    42  H    0.000000
    43  H    0.000000
    44  H    0.000000
    45  H    0.000000
    46  H    0.000000
    47  H    0.000000
    48  H    0.000000
    49  H    0.000000
    50  H    0.000000
    51  H    0.000000
    52  H    0.000000
    53  H    0.000000
    54  H    0.000000
    55  H    0.000000
    56  H    0.000000
    57  H    0.000000
    58  H    0.000000
    59  H    0.000000
 Sum of Mulliken charges=   0.00000
 Entering OneElI...
 OneElI was handed  5873799 working-precision words.
 Multipole integrals L=0 to 4 MinM= 0 MaxM= 0.
 Requested accuracy = 0.1000D-12
 PrsmSu:  NPrtUS=   1 ThrOK=F
 PRISM was handed     4956602 working-precision words and 10857 shell-pairs
 Electronic moments (au):
  -222.00000000    -2.35954738    -0.08514724    -0.68588388
 -7126.50168428 -4936.40149659 -1534.48442968     5.41832744
    -6.95235245     4.33212495 -4821.19254188-12145.57562770
  -664.12078379  8601.20602073 13120.71009871 -2259.05550112
 -1771.76402256   402.63514743  4058.51979621  4777.02623317
******************************-27254.04554449  3067.58644105
 -4509.73414025 -1233.35143954 -7413.09117907 -3794.10265168
   538.34598401-87843.96153646-56368.69016009-36280.21849072
 -7927.33144393-19684.05220016  6274.81967377
 Electronic spatial extent (au):  <R**2>= 13597.3876
 Nuclear    moments (au):
   222.00000000     0.00000000     0.00000000     0.00000000
  6982.04563865  4809.22294973  1408.16717443     0.00000000
     0.00000000     0.00000000  4402.65778642 12006.56728017
   654.57149701 -8705.82364280-13084.84373397  2177.18528626
  1769.51662381  -385.82369143 -4085.10000011 -4824.67028753
440153.44576219263205.07806668 22169.18611386 -1901.37712270
  3432.85426455  1080.45128327  7772.77699293  3873.58609190
  -469.81405851 80960.28397849 51277.52400534 32844.17460750
  8455.94351545 19997.76453101 -6284.44015769
 Total      moments (au):
     0.00000000    -2.35954738    -0.08514724    -0.68588388
  -144.45604563  -127.17854686  -126.31725525     5.41832744
    -6.95235245     4.33212495  -418.53475547  -139.00834753
    -9.54928678  -104.61762207    35.86636474   -81.87021487
    -2.24739875    16.81145600   -26.58020390   -47.64405436
-27690.83022688-17428.34325461 -5084.85943063  1166.20931835
 -1076.87987570  -152.90015627   359.68581386    79.48344022
    68.53192550 -6883.67755797 -5091.16615475 -3436.04388322
   528.61207152   313.71233086    -9.62048393
 Charge=     0.0000 electrons
 Dipole moment (field-independent basis, Debye):
    X=    -5.9974    Y=    -0.2164    Z=    -1.7433  Tot=     6.2494
 Quadrupole moment (field-independent basis, Debye-Ang):
   XX=  -194.2983   YY=  -171.0595   ZZ=  -169.9010
   XY=     7.2878   XZ=    -9.3512   YZ=     5.8269
 Traceless Quadrupole moment (field-independent basis, Debye-Ang):
   XX=   -15.8787   YY=     7.3601   ZZ=     8.5186
   XY=     7.2878   XZ=    -9.3512   YZ=     5.8269
 Octapole moment (field-independent basis, Debye-Ang**2):
  XXX=  -297.8969  YYY=   -98.9408  ZZZ=    -6.7968  XYY=   -74.4628
  XXY=    25.5283  XXZ=   -58.2721  XZZ=    -1.5996  YZZ=    11.9657
  YYZ=   -18.9188  XYZ=   -33.9112
 Hexadecapole moment (field-independent basis, Debye-Ang**3):
 XXXX=-10429.6936 YYYY= -6564.3492 ZZZZ= -1915.2017 XXXY=   439.2503
 XXXZ=  -405.6046 YYYX=   -57.5895 YYYZ=   135.4749 ZZZX=    29.9373
 ZZZY=    25.8124 XXYY= -2592.7228 XXZZ= -1917.5771 YYZZ= -1294.1788
 XXYZ=   199.1006 YYXZ=   118.1591 ZZXY=    -3.6235
 N-N= 3.062836455415D+03 E-N=-9.242083385073D+03  KE= 1.330761389123D+03
 Entering OneElI...
 OneElI was handed  5328921 working-precision words.
 Calculate electrostatic properties
    NBasis =   521  MinDer = 0  MaxDer = 0
    NGrid  =    59  NMatD  =   1
 Requested accuracy = 0.1000D-12
 PrsmSu:  NPrtUS=   1 ThrOK=F
 PRISM was handed     4507083 working-precision words and  9259 shell-pairs
 --------------------------------------------------------
       Center         ----      EFG at Nuclei      ----
                      3XX-RR        3YY-RR        3ZZ-RR
 --------------------------------------------------------
     1   Atom        0.104927     -0.132877      0.027950
     2   Atom        0.251486     -0.677579      0.426093
     3   Atom        0.239427     -0.073781     -0.165646
     4   Atom        0.065475      0.010181     -0.075656
     5   Atom        0.162738      0.013528     -0.176265
     6   Atom        0.063706      0.013546     -0.077252
     7   Atom        0.283514     -0.095991     -0.187523
     8   Atom        0.287891     -0.843668      0.555777
     9   Atom        0.058879     -0.140202      0.081323
    10   Atom        0.064041     -0.001146     -0.062895
    11   Atom        0.088930      0.129346     -0.218276
    12   Atom        0.172528      0.086084     -0.258612
    13   Atom        0.171102      0.028715     -0.199817
    14   Atom       -0.117915      0.205239     -0.087324
    15   Atom       -0.519939      0.781944     -0.262005
    16   Atom        0.070501      0.046814     -0.117315
    17   Atom        0.025244     -0.018714     -0.006530
    18   Atom       -0.008880      0.025063     -0.016183
    19   Atom       -0.004912     -0.039308      0.044220
    20   Atom        0.525151      0.108595     -0.633746
    21   Atom       -0.175179     -0.105052      0.280231
    22   Atom       -0.053386     -0.006865      0.060251
    23   Atom       -0.140984     -0.062891      0.203875
    24   Atom       -0.089665     -0.042215      0.131880
    25   Atom       -0.122027     -0.031640      0.153666
    26   Atom       -0.063687     -0.000930      0.064617
    27   Atom        0.164623      0.016028     -0.180650
    28   Atom        0.157388      0.097503     -0.254891
    29   Atom        0.323357     -0.491090      0.167733
    30   Atom        0.065449      0.015189     -0.080638
    31   Atom       -0.988884     -0.672583      1.661467
    32   Atom       -0.076253     -0.004864      0.081117
    33   Atom        0.067629      0.046972     -0.114600
    34   Atom        0.013631     -0.004474     -0.009158
    35   Atom        0.009703      0.079123     -0.088826
    36   Atom       -0.075341     -0.000037      0.075379
    37   Atom        0.031262     -0.076182      0.044920
    38   Atom       -0.316781      0.155026      0.161755
    39   Atom       -0.008029     -0.052063      0.060092
    40   Atom       -0.036787     -0.031831      0.068617
    41   Atom        0.028380      0.027423     -0.055803
    42   Atom       -0.017190      0.084582     -0.067393
    43   Atom        0.047526     -0.165146      0.117620
    44   Atom        0.025346     -0.143206      0.117860
    45   Atom        0.059100      0.055171     -0.114271
    46   Atom       -0.059070      0.012435      0.046636
    47   Atom       -0.065314     -0.023366      0.088680
    48   Atom        0.011740     -0.095138      0.083398
    49   Atom        0.073599      0.038714     -0.112312
    50   Atom        0.203576      0.185989     -0.389565
    51   Atom        0.160175      0.155747     -0.315922
    52   Atom        0.035839     -0.019874     -0.015965
    53   Atom       -0.008435     -0.061914      0.070349
    54   Atom        0.156892      0.156426     -0.313318
    55   Atom        0.047888     -0.014857     -0.033032
    56   Atom        0.012522     -0.111421      0.098899
    57   Atom        0.132484     -0.277297      0.144813
    58   Atom       -0.029508      0.134847     -0.105340
    59   Atom       -0.153332      0.017939      0.135393
 --------------------------------------------------------
                        XY            XZ            YZ
 --------------------------------------------------------
     1   Atom       -0.192003     -0.136707     -0.234873
     2   Atom        0.168459      0.154296     -1.713562
     3   Atom        0.195532      0.143637      0.131857
     4   Atom       -0.019175     -0.013489      0.131715
     5   Atom       -0.002826      0.000312      0.284983
     6   Atom        0.011749      0.013403      0.135521
     7   Atom       -0.175292     -0.122293      0.115123
     8   Atom        0.055877     -0.151876     -1.663391
     9   Atom        0.233366      0.140482     -0.199119
    10   Atom       -0.001646      0.000884      0.087920
    11   Atom        0.004104      0.015108     -0.162921
    12   Atom       -0.005203      0.023649     -0.172623
    13   Atom        0.003938     -0.000593     -0.146915
    14   Atom       -0.005548      0.025466     -0.187864
    15   Atom       -0.167775     -0.074215      0.551908
    16   Atom       -0.050902      0.175005      0.195127
    17   Atom       -0.001076      0.038970     -0.043130
    18   Atom        0.038405      0.009565      0.015550
    19   Atom        0.116747     -0.079404      0.142358
    20   Atom        0.964870      0.030306      0.020271
    21   Atom       -0.196113      0.076095     -0.109854
    22   Atom       -0.152361     -0.015255      0.009986
    23   Atom       -0.269812     -0.025938      0.012144
    24   Atom       -0.165465      0.006159     -0.017169
    25   Atom       -0.290122      0.002050     -0.018762
    26   Atom       -0.154872     -0.013191     -0.000809
    27   Atom        0.008865      0.034082     -0.170713
    28   Atom        0.005646      0.021689     -0.194885
    29   Atom        0.015401     -0.098194     -0.201657
    30   Atom        0.000168      0.052433      0.016261
    31   Atom        0.048522     -0.066534     -0.528677
    32   Atom       -0.188354     -0.104935     -0.087909
    33   Atom       -0.079968     -0.146192     -0.158075
    34   Atom       -0.150618      0.146220      0.143633
    35   Atom        0.090994     -0.190328      0.113844
    36   Atom        0.175410      0.127172     -0.114995
    37   Atom       -0.159671     -0.116040     -0.185285
    38   Atom       -0.016951     -0.014262     -0.010031
    39   Atom        0.176322      0.126627     -0.166184
    40   Atom       -0.173938     -0.123234     -0.132542
    41   Atom        0.127864     -0.156630      0.144648
    42   Atom       -0.092889      0.198176      0.104392
    43   Atom       -0.174691      0.068635      0.133282
    44   Atom        0.187283     -0.083569      0.131983
    45   Atom       -0.092642      0.164999      0.154918
    46   Atom        0.173012     -0.146199      0.118664
    47   Atom       -0.193211     -0.116755     -0.111865
    48   Atom       -0.178615      0.095582      0.133021
    49   Atom       -0.083092     -0.139100     -0.170570
    50   Atom        0.047174      0.015337     -0.022982
    51   Atom        0.019995      0.036446     -0.027356
    52   Atom        0.159297     -0.144126      0.172551
    53   Atom        0.208550      0.114777     -0.129002
    54   Atom        0.011566      0.041252     -0.029564
    55   Atom        0.159001     -0.140335      0.173533
    56   Atom        0.183296     -0.096868      0.140578
    57   Atom       -0.111239      0.008668      0.023460
    58   Atom       -0.060400     -0.212696     -0.066425
    59   Atom        0.207631      0.056790     -0.032100
 --------------------------------------------------------


 ---------------------------------------------------------------------------------
              Nuclear Quadrupole in Principal Axis System
 ---------------------------------------------------------------------------------

       Atom             a.u.   MegaHertz   Gauss  10(-4) cm-1        Axes

              Baa    -0.4088   -54.864   -19.577   -18.301  0.4170  0.7397  0.5282
     1 C(13)  Bbb     0.1958    26.273     9.375     8.764 -0.0194 -0.5738  0.8188
              Bcc     0.2131    28.591    10.202     9.537  0.9087 -0.3516 -0.2249
 
              Baa    -1.9494   141.056    50.332    47.051 -0.1026  0.8036  0.5863
     2 O(17)  Bbb     0.2744   -19.858    -7.086    -6.624  0.9946  0.0936  0.0458
              Bcc     1.6749  -121.198   -43.246   -40.427  0.0181 -0.5878  0.8088
 
              Baa    -0.2594   -34.808   -12.420   -11.611 -0.0133 -0.5697  0.8217
     3 C(13)  Bbb    -0.1366   -18.325    -6.539    -6.112 -0.5420  0.6947  0.4729
              Bcc     0.3960    53.133    18.959    17.723  0.8403  0.4391  0.3180
 
              Baa    -0.1713   -22.983    -8.201    -7.666 -0.0015 -0.5875  0.8092
     4 C(13)  Bbb     0.0547     7.342     2.620     2.449  0.9089  0.3367  0.2462
              Bcc     0.1166    15.640     5.581     5.217 -0.4171  0.7358  0.5335
 
              Baa    -0.3817   -51.226   -18.279   -17.087 -0.0035 -0.5848  0.8111
     5 C(13)  Bbb     0.1627    21.828     7.789     7.281  0.9993  0.0283  0.0247
              Bcc     0.2191    29.398    10.490     9.806 -0.0374  0.8107  0.5843
 
              Baa    -0.1748   -23.462    -8.372    -7.826 -0.0169 -0.5832  0.8122
     6 C(13)  Bbb     0.0581     7.794     2.781     2.600  0.9501 -0.2623 -0.1686
              Bcc     0.1168    15.668     5.591     5.226  0.3114  0.7688  0.5585
 
              Baa    -0.2657   -35.650   -12.721   -11.891  0.0076 -0.5561  0.8311
     7 C(13)  Bbb    -0.1287   -17.266    -6.161    -5.759  0.4602  0.7398  0.4908
              Bcc     0.3943    52.916    18.882    17.651  0.8878 -0.3788 -0.2615
 
              Baa    -1.9491   141.039    50.326    47.046  0.0168  0.8325  0.5538
     8 O(17)  Bbb     0.2707   -19.587    -6.989    -6.534  0.9935 -0.0762  0.0844
              Bcc     1.6785  -121.452   -43.337   -40.512 -0.1125 -0.5488  0.8283
 
              Baa    -0.4141   -55.573   -19.830   -18.537 -0.4990  0.7458  0.4412
     9 C(13)  Bbb     0.1981    26.581     9.485     8.866 -0.1171 -0.5625  0.8184
              Bcc     0.2161    28.992    10.345     9.671  0.8586  0.3567  0.3681
 
              Baa    -0.1252   -16.803    -5.996    -5.605 -0.0088 -0.5782  0.8158
    10 C(13)  Bbb     0.0609     8.178     2.918     2.728  0.2579  0.7869  0.5605
              Bcc     0.0643     8.626     3.078     2.877  0.9661 -0.2154 -0.1422
 
              Baa    -0.2833   -38.022   -13.567   -12.683 -0.0418  0.3672  0.9292
    11 C(13)  Bbb     0.0896    12.017     4.288     4.008  0.9990  0.0309  0.0327
              Bcc     0.1938    26.005     9.279     8.674 -0.0167  0.9296 -0.3682
 
              Baa    -0.3310   -44.414   -15.848   -14.815 -0.0394  0.3817  0.9234
    12 C(13)  Bbb     0.1496    20.072     7.162     6.695  0.5037  0.8057 -0.3116
              Bcc     0.1814    24.342     8.686     8.120  0.8630 -0.4529  0.2241
 
              Baa    -0.2717   -36.456   -13.008   -12.160 -0.0027  0.4394  0.8983
    13 C(13)  Bbb     0.1004    13.468     4.806     4.492 -0.0536  0.8969 -0.4389
              Bcc     0.1713    22.988     8.203     7.668  0.9986  0.0494 -0.0211
 
              Baa    -0.1854   -24.877    -8.877    -8.298 -0.2921  0.4111  0.8635
    14 C(13)  Bbb    -0.1123   -15.070    -5.377    -5.027  0.9556  0.1622  0.2460
              Bcc     0.2977    39.947    14.254    13.325 -0.0390  0.8970 -0.4403
 
              Baa    -0.5416   -20.887    -7.453    -6.967  0.9923  0.0902  0.0854
    15 N(14)  Bbb    -0.4996   -19.268    -6.875    -6.427 -0.0424 -0.3999  0.9156
              Bcc     1.0412    40.156    14.329    13.394 -0.1167  0.9121  0.3929
 
              Baa    -0.3247   -43.566   -15.545   -14.532 -0.4076 -0.4678  0.7842
    16 C(13)  Bbb     0.1103    14.807     5.284     4.939  0.7225 -0.6904 -0.0363
              Bcc     0.2143    28.759    10.262     9.593  0.5584  0.5519  0.6194
 
              Baa    -0.0639    -8.572    -3.059    -2.859 -0.2957  0.6561  0.6944
    17 C(13)  Bbb     0.0030     0.408     0.146     0.136  0.6536  0.6691 -0.3538
              Bcc     0.0608     8.163     2.913     2.723  0.6967 -0.3492  0.6266
 
              Baa    -0.0339    -4.551    -1.624    -1.518  0.8333 -0.5517  0.0343
    18 C(13)  Bbb    -0.0209    -2.799    -0.999    -0.934 -0.1653 -0.1895  0.9679
              Bcc     0.0548     7.350     2.623     2.452  0.5275  0.8122  0.2491
 
              Baa    -0.2331   -31.282   -11.162   -10.435 -0.5259  0.6861 -0.5027
    19 C(13)  Bbb     0.0818    10.983     3.919     3.663  0.8475  0.3729 -0.3777
              Bcc     0.1513    20.300     7.243     6.771  0.0716  0.6247  0.7776
 
              Baa    -0.6705   -25.860    -9.228    -8.626 -0.6268  0.7739  0.0900
    20 N(14)  Bbb    -0.6341   -24.457    -8.727    -8.158  0.0420 -0.0817  0.9958
              Bcc     1.3046    50.317    17.954    16.784  0.7780  0.6280  0.0187
 
              Baa    -0.3396   -45.570   -16.261   -15.201  0.7621  0.6471  0.0211
    21 C(13)  Bbb    -0.0033    -0.438    -0.156    -0.146 -0.5929  0.6844  0.4243
              Bcc     0.3429    46.009    16.417    15.347  0.2601 -0.3359  0.9053
 
              Baa    -0.1844   -24.739    -8.827    -8.252  0.7592  0.6505  0.0208
    22 C(13)  Bbb     0.0559     7.495     2.675     2.500  0.1467 -0.2021  0.9683
              Bcc     0.1285    17.244     6.153     5.752 -0.6341  0.7321  0.2489
 
              Baa    -0.3748   -50.294   -17.946   -16.776  0.7565  0.6536  0.0202
    23 C(13)  Bbb     0.1564    20.982     7.487     6.999 -0.5661  0.6700 -0.4803
              Bcc     0.2184    29.312    10.459     9.777 -0.3275  0.3519  0.8769
 
              Baa    -0.2332   -31.295   -11.167   -10.439  0.7549  0.6556  0.0181
    24 C(13)  Bbb     0.0937    12.570     4.485     4.193 -0.6049  0.6853  0.4055
              Bcc     0.1395    18.725     6.682     6.246  0.2534 -0.3170  0.9139
 
              Baa    -0.3707   -49.740   -17.749   -16.592  0.7591  0.6507  0.0203
    25 C(13)  Bbb     0.1502    20.160     7.194     6.725 -0.1634  0.1602  0.9735
              Bcc     0.2204    29.580    10.555     9.867 -0.6302  0.7423 -0.2279
 
              Baa    -0.1908   -25.600    -9.135    -8.539  0.7741  0.6317  0.0420
    26 C(13)  Bbb     0.0641     8.602     3.069     2.869  0.0463 -0.1227  0.9914
              Bcc     0.1267    16.999     6.066     5.670 -0.6314  0.7655  0.1242
 
              Baa    -0.2819   -37.829   -13.498   -12.618 -0.0758  0.4974  0.8642
    27 C(13)  Bbb     0.1131    15.175     5.415     5.062  0.1697  0.8605 -0.4804
              Bcc     0.1688    22.654     8.083     7.557  0.9826 -0.1102  0.1497
 
              Baa    -0.3424   -45.947   -16.395   -15.326 -0.0442  0.4051  0.9132
    28 C(13)  Bbb     0.1579    21.183     7.559     7.066  0.9895  0.1436 -0.0158
              Bcc     0.1845    24.763     8.836     8.260 -0.1375  0.9029 -0.4072
 
              Baa    -0.5481   -73.547   -26.243   -24.532  0.0137  0.9619  0.2729
    29 C(13)  Bbb     0.1636    21.960     7.836     7.325  0.5252 -0.2392  0.8167
              Bcc     0.3844    51.587    18.407    17.207  0.8509  0.1321 -0.5085
 
              Baa    -0.0996   -13.363    -4.768    -4.458 -0.3000 -0.1334  0.9446
    30 C(13)  Bbb     0.0169     2.263     0.808     0.755 -0.1147  0.9880  0.1031
              Bcc     0.0827    11.100     3.961     3.703  0.9470  0.0774  0.3117
 
              Baa    -0.9962    72.088    25.723    24.046  0.9872 -0.1594 -0.0070
    31 O(17)  Bbb    -0.7814    56.544    20.176    18.861  0.1572  0.9643  0.2130
              Bcc     1.7777  -128.632   -45.899   -42.907 -0.0272 -0.2113  0.9770
 
              Baa    -0.2836  -151.336   -54.000   -50.480  0.7206  0.5977  0.3514
    32 H(1)   Bbb     0.1325    70.676    25.219    23.575 -0.2948 -0.1945  0.9355
              Bcc     0.1512    80.660    28.781    26.905 -0.6275  0.7778 -0.0360
 
              Baa    -0.2890  -154.217   -55.028   -51.441  0.4230  0.4662  0.7770
    33 H(1)   Bbb     0.1371    73.170    26.109    24.407 -0.6033  0.7847 -0.1424
              Bcc     0.1519    81.047    28.919    27.034  0.6761  0.4085 -0.6132
 
              Baa    -0.2938  -156.741   -55.929   -52.283 -0.5639 -0.5837  0.5843
    34 H(1)   Bbb     0.1361    72.613    25.910    24.221  0.1516  0.6223  0.7680
              Bcc     0.1577    84.128    30.019    28.062  0.8118 -0.5216  0.2624
 
              Baa    -0.2932  -156.437   -55.821   -52.182  0.5715 -0.3645  0.7352
    35 H(1)   Bbb     0.1359    72.535    25.882    24.195  0.1434  0.9265  0.3478
              Bcc     0.1573    83.902    29.938    27.987  0.8080  0.0933 -0.5818
 
              Baa    -0.2960  -157.954   -56.362   -52.688  0.7005 -0.5778 -0.4188
    36 H(1)   Bbb     0.1374    73.284    26.150    24.445  0.7136  0.5687  0.4090
              Bcc     0.1587    84.670    30.212    28.243  0.0018 -0.5854  0.8108
 
              Baa    -0.3211  -171.335   -61.137   -57.151  0.4887  0.7062  0.5124
    37 H(1)   Bbb     0.1418    75.670    27.001    25.241  0.8724 -0.3982 -0.2833
              Bcc     0.1793    95.665    34.136    31.910 -0.0040 -0.5854  0.8107
 
              Baa    -0.3178  -169.582   -60.511   -56.566  0.9989  0.0365  0.0305
    38 H(1)   Bbb     0.1489    79.424    28.340    26.493 -0.0474  0.8132  0.5801
              Bcc     0.1690    90.158    32.171    30.073 -0.0036 -0.5809  0.8140
 
              Baa    -0.3216  -171.611   -61.235   -57.243 -0.5691  0.6679  0.4796
    39 H(1)   Bbb     0.1422    75.889    27.079    25.314  0.8222  0.4627  0.3314
              Bcc     0.1794    95.722    34.156    31.929  0.0005 -0.5829  0.8125
 
              Baa    -0.2976  -158.772   -56.654   -52.960  0.6329  0.6351  0.4429
    40 H(1)   Bbb     0.1373    73.237    26.133    24.429  0.7711 -0.5685 -0.2867
              Bcc     0.1603    85.535    30.521    28.531 -0.0696 -0.5230  0.8495
 
              Baa    -0.2921  -155.863   -55.616   -51.990  0.5334 -0.5166  0.6698
    41 H(1)   Bbb     0.1343    71.639    25.562    23.896 -0.2474  0.6619  0.7076
              Bcc     0.1579    84.225    30.053    28.094  0.8089  0.5431 -0.2253
 
              Baa    -0.2937  -156.689   -55.910   -52.266 -0.6206 -0.3465  0.7034
    42 H(1)   Bbb     0.1362    72.662    25.927    24.237 -0.2071  0.9376  0.2792
              Bcc     0.1575    84.027    29.983    28.029  0.7563 -0.0276  0.6537
 
              Baa    -0.3152  -168.169   -60.007   -56.095  0.4596  0.8257 -0.3272
    43 H(1)   Bbb     0.1446    77.170    27.536    25.741  0.8879 -0.4185  0.1910
              Bcc     0.1706    90.999    32.471    30.354 -0.0208  0.3783  0.9255
 
              Baa    -0.3200  -170.751   -60.928   -56.956 -0.5105  0.7915 -0.3360
    44 H(1)   Bbb     0.1464    78.096    27.867    26.050  0.8486  0.5269 -0.0480
              Bcc     0.1737    92.655    33.062    30.906 -0.1390  0.3096  0.9406
 
[...]
 **** Fit       0.002551
 **** Fit       0.004109
 **** Fit       0.005109
 **** Fit       0.005602
 **** Fit       0.005640
 **** Fit       0.005271
 **** Fit       0.004533
 **** Fit       0.003451
 **** Fit       0.002031
 **** Fit       0.000253
 **** Fit       0.002230
 **** Fit       0.003747
 **** Fit       0.004821
 **** Fit       0.005479
 **** Fit       0.005749
 **** Fit       0.005661
 **** Fit       0.005242
 **** Fit       0.004512
 **** Fit       0.003483
 **** Fit       0.002155
 **** Fit       0.000513
 **** Fit      -0.000852
 **** Fit       0.001239
 **** Fit       0.002936
 **** Fit       0.004240
 **** Fit       0.005159
 **** Fit       0.005711
 **** Fit       0.005915
 **** Fit       0.005791
 **** Fit       0.005360
 **** Fit       0.004637
 **** Fit       0.003633
 **** Fit       0.002350
 **** Fit       0.000788
 **** Fit      -0.001291
 **** Fit       0.000798
 **** Fit       0.002549
 **** Fit       0.003947
 **** Fit       0.004987
 **** Fit       0.005675
 **** Fit       0.006021
 **** Fit       0.006042
 **** Fit       0.005756
 **** Fit       0.005182
 **** Fit       0.004337
 **** Fit       0.003240
 **** Fit       0.001912
 **** Fit      -0.001494
 **** Fit       0.000496
 **** Fit       0.002225
 **** Fit       0.003658
 **** Fit       0.004774
 **** Fit       0.005565
 **** Fit       0.006031
 **** Fit       0.006184
 **** Fit       0.006039
 **** Fit       0.005618
 **** Fit       0.004948
 **** Fit       0.004064
 **** Fit       0.003017
 **** Fit       0.001884
 **** Fit      -0.000781
 **** Fit       0.001041
 **** Fit       0.002668
 **** Fit       0.004027
 **** Fit       0.005075
 **** Fit       0.005790
 **** Fit       0.006168
 **** Fit       0.006221
 **** Fit       0.005977
 **** Fit       0.005477
 **** Fit       0.004785
 **** Fit       0.003996
 **** Fit       0.003262
 **** Fit       0.000153
 **** Fit       0.001677
 **** Fit       0.003129
 **** Fit       0.004373
 **** Fit       0.005325
 **** Fit       0.005942
 **** Fit       0.006219
 **** Fit       0.006179
 **** Fit       0.005880
 **** Fit       0.005419
 **** Fit       0.004953
 **** Fit       0.004724
 **** Fit       0.001558
 **** Fit       0.002669
 **** Fit       0.003892
 **** Fit       0.004962
 **** Fit       0.005729
 **** Fit       0.006135
 **** Fit       0.006206
 **** Fit       0.006046
 **** Fit       0.005855
 **** Fit       0.005948
 **** Fit       0.003284
 **** Fit       0.003873
 **** Fit       0.004861
 **** Fit       0.005694
 **** Fit       0.006139
 **** Fit       0.006271
 **** Fit       0.006432
 **** Fit       0.007092
 **** Fit       0.005279
 **** Fit       0.005004
 **** Fit       0.005743
 **** Fit       0.006285
 **** Fit       0.006758
 **** Fit       0.006003
 **** Fit       0.006813
 **** Fit       0.007040
 **** Fit       0.005746
 **** Fit       0.005959
 **** Fit       0.006313
 **** Fit       0.006468
 **** Fit       0.006419
 **** Fit       0.004344
 **** Fit       0.004964
 **** Fit       0.005609
 **** Fit       0.006071
 **** Fit       0.006263
 **** Fit       0.006185
 **** Fit       0.005897
 **** Fit       0.002157
 **** Fit       0.003070
 **** Fit       0.004068
 **** Fit       0.004961
 **** Fit       0.005641
 **** Fit       0.006053
 **** Fit       0.006180
 **** Fit       0.006037
 **** Fit       0.005661
 **** Fit       0.005097
 **** Fit       0.000789
 **** Fit       0.002178
 **** Fit       0.003447
 **** Fit       0.004513
 **** Fit       0.005326
 **** Fit       0.005859
 **** Fit       0.006102
 **** Fit       0.006062
 **** Fit       0.005758
 **** Fit       0.005219
 **** Fit       0.004470
 **** Fit      -0.001975
 **** Fit      -0.000160
 **** Fit       0.001479
 **** Fit       0.002899
 **** Fit       0.004072
 **** Fit       0.004979
 **** Fit       0.005609
 **** Fit       0.005959
 **** Fit       0.006033
 **** Fit       0.005838
 **** Fit       0.005389
 **** Fit       0.004703
 **** Fit       0.003788
 **** Fit      -0.002233
 **** Fit      -0.000195
 **** Fit       0.001554
 **** Fit       0.003012
 **** Fit       0.004176
 **** Fit       0.005043
 **** Fit       0.005614
 **** Fit       0.005891
 **** Fit       0.005877
 **** Fit       0.005576
 **** Fit       0.004996
 **** Fit       0.004141
 **** Fit       0.003005
 **** Fit      -0.002034
 **** Fit       0.000027
 **** Fit       0.001755
 **** Fit       0.003165
 **** Fit       0.004265
 **** Fit       0.005061
 **** Fit       0.005557
 **** Fit       0.005754
 **** Fit       0.005655
 **** Fit       0.005257
 **** Fit       0.004555
 **** Fit       0.003539
 **** Fit       0.002184
 **** Fit      -0.003553
 **** Fit      -0.001217
 **** Fit       0.000738
 **** Fit       0.002341
 **** Fit       0.003612
 **** Fit       0.004562
 **** Fit       0.005199
 **** Fit       0.005526
 **** Fit       0.005541
 **** Fit       0.005238
 **** Fit       0.004605
 **** Fit       0.003618
 **** Fit       0.002240
 **** Fit      -0.004099
 **** Fit      -0.001553
 **** Fit       0.000547
 **** Fit       0.002244
 **** Fit       0.003565
 **** Fit       0.004527
 **** Fit       0.005138
 **** Fit       0.005399
 **** Fit       0.005301
 **** Fit       0.004827
 **** Fit       0.003944
 **** Fit       0.002599
 **** Fit      -0.001191
 **** Fit       0.000968
 **** Fit       0.002668
 **** Fit       0.003942
 **** Fit       0.004808
 **** Fit       0.005267
 **** Fit       0.005311
 **** Fit       0.004909
 **** Fit       0.004013
 **** Fit      -0.000507
 **** Fit       0.001654
 **** Fit       0.003315
 **** Fit       0.004511
 **** Fit       0.005252
 **** Fit       0.005526
 **** Fit       0.005298
 **** Fit       0.004497
 **** Fit       0.003753
 **** Fit       0.005159
 **** Fit       0.007295
 **** Fit       0.006613
 **** Fit       0.006810
 **** Fit       0.007439
 **** Fit       0.007894
 **** Fit       0.007654
 **** Fit       0.006998
 **** Fit       0.005822
 **** Fit       0.005808
 **** Fit       0.006160
 **** Fit       0.006767
 **** Fit       0.007430
 **** Fit       0.008006
 **** Fit       0.008426
 **** Fit       0.008486
 **** Fit       0.007946
 **** Fit       0.007158
 **** Fit       0.006572
 **** Fit       0.006133
 **** Fit       0.004887
 **** Fit       0.004737
 **** Fit       0.004888
 **** Fit       0.005316
 **** Fit       0.005938
 **** Fit       0.006635
 **** Fit       0.007291
 **** Fit       0.007850
 **** Fit       0.008357
 **** Fit       0.008872
 **** Fit       0.009273
 **** Fit       0.009147
 **** Fit       0.008264
 **** Fit       0.007160
 **** Fit       0.006449
 **** Fit       0.006080
 **** Fit       0.005719
 **** Fit       0.005271
 **** Fit       0.003770
 **** Fit       0.003482
 **** Fit       0.003501
 **** Fit       0.003808
 **** Fit       0.004355
 **** Fit       0.005072
 **** Fit       0.005863
 **** Fit       0.006621
 **** Fit       0.007254
 **** Fit       0.007748
 **** Fit       0.008200
 **** Fit       0.008776
 **** Fit       0.009577
 **** Fit       0.006155
 **** Fit       0.005701
 **** Fit       0.005656
 **** Fit       0.005467
 **** Fit       0.004963
 **** Fit       0.004315
 **** Fit       0.002417
 **** Fit       0.001975
 **** Fit       0.001881
 **** Fit       0.002103
 **** Fit       0.002597
 **** Fit       0.003313
 **** Fit       0.004191
 **** Fit       0.005144
 **** Fit       0.006057
 **** Fit       0.006804
 **** Fit       0.007315
 **** Fit       0.007640
 **** Fit       0.007971
 **** Fit       0.008581
 **** Fit       0.004774
 **** Fit       0.004732
 **** Fit       0.005292
 **** Fit       0.005533
 **** Fit       0.005095
 **** Fit       0.004182
 **** Fit       0.003194
 **** Fit       0.000753
 **** Fit       0.000156
 **** Fit      -0.000047
 **** Fit       0.000089
 **** Fit       0.000511
 **** Fit       0.001184
 **** Fit       0.002073
 **** Fit       0.003134
 **** Fit       0.004294
 **** Fit       0.005431
 **** Fit       0.006382
 **** Fit       0.006998
 **** Fit       0.007238
 **** Fit       0.007244
 **** Fit       0.007314
 **** Fit       0.007804
 **** Fit       0.003203
 **** Fit       0.001784
 **** Fit      -0.002099
 **** Fit      -0.002368
 **** Fit      -0.002252
 **** Fit      -0.001819
 **** Fit      -0.001105
 **** Fit      -0.000128
 **** Fit       0.001099
 **** Fit       0.002539
 **** Fit       0.004098
 **** Fit       0.005588
 **** Fit       0.004414
 **** Fit       0.004276
 **** Fit       0.005044
 **** Fit       0.004319
 **** Fit       0.003197
 **** Fit       0.003706
 **** Fit       0.003941
 **** Fit       0.004121
 **** Fit       0.005079
 **** Fit       0.003949
 **** Fit       0.001874
 **** Fit       0.001259
 **** Fit       0.002221
 **** Fit       0.003421
 **** Fit       0.003926
 **** Fit       0.003441
 **** Fit       0.003119
 **** Fit       0.003288
 **** Fit      -0.001536
 **** Fit      -0.001674
 **** Fit      -0.000085
 **** Fit       0.002050
 **** Fit       0.003548
 **** Fit       0.004060
 **** Fit       0.003881
 **** Fit       0.002818
 **** Fit       0.002082
 **** Fit       0.001649
 **** Fit       0.001822
 **** Fit      -0.005976
 **** Fit      -0.006400
 **** Fit      -0.004480
 **** Fit      -0.001253
 **** Fit       0.001908
 **** Fit       0.003897
 **** Fit       0.004568
 **** Fit       0.004337
 **** Fit       0.003644
 **** Fit       0.002137
 **** Fit       0.001006
 **** Fit       0.000061
 **** Fit      -0.000516
 **** Fit      -0.013327
 **** Fit      -0.012004
 **** Fit      -0.008370
 **** Fit       0.005314
 **** Fit       0.004483
 **** Fit       0.003338
 **** Fit       0.001493
 **** Fit      -0.000020
 **** Fit      -0.001430
 **** Fit       0.004632
 **** Fit       0.003064
 **** Fit       0.001009
 **** Fit      -0.001035
 **** Fit      -0.002994
 **** Fit      -0.001900
 **** Fit      -0.010204
 **** Fit      -0.009474
 **** Fit      -0.008594
 **** Fit      -0.006870
 **** Fit      -0.007633
 **** Fit      -0.004544
 **** Fit      -0.005064
 **** Fit      -0.006639
 **** Fit      -0.002204
 **** Fit      -0.003672
 **** Fit      -0.005534
 **** Fit       0.002345
 **** Fit       0.000401
 **** Fit      -0.001515
 **** Fit      -0.003422
 **** Fit       0.004704
 **** Fit       0.001854
 **** Fit       0.006028
 **** Fit       0.001561
 **** Fit       0.001024
 **** Fit       0.002235
 **** Fit       0.002325
 **** Fit       0.001915
 **** Fit       0.001020
 **** Fit      -0.000214
 **** Fit       0.002218
 **** Fit       0.002875
 **** Fit       0.003163
 **** Fit       0.002981
 **** Fit       0.002318
 **** Fit       0.001218
 **** Fit      -0.000226
 **** Fit      -0.001847
 **** Fit       0.002220
 **** Fit       0.003232
 **** Fit       0.003874
 **** Fit       0.004043
 **** Fit       0.003719
 **** Fit       0.002927
 **** Fit       0.001707
 **** Fit       0.000109
 **** Fit      -0.001783
 **** Fit      -0.003826
 **** Fit       0.002015
 **** Fit       0.003440
 **** Fit       0.004453
 **** Fit       0.004952
 **** Fit       0.004938
 **** Fit       0.004450
 **** Fit       0.003530
 **** Fit       0.002209
 **** Fit       0.000513
 **** Fit      -0.001535
 **** Fit      -0.003884
 **** Fit       0.001818
 **** Fit       0.003840
 **** Fit       0.005246
 **** Fit       0.005967
 **** Fit       0.006065
 **** Fit       0.005630
 **** Fit       0.004739
 **** Fit       0.003436
 **** Fit       0.001735
 **** Fit      -0.000368
 **** Fit      -0.002889
 **** Fit      -0.005834
 **** Fit       0.006340
 **** Fit       0.007269
 **** Fit       0.007417
 **** Fit       0.006968
 **** Fit       0.006053
 **** Fit       0.004744
 **** Fit       0.003060
 **** Fit       0.000983
 **** Fit      -0.001535
 **** Fit      -0.004565
 **** Fit      -0.008194
 **** Fit       0.008929
 **** Fit       0.007961
 **** Fit       0.006611
 **** Fit       0.004935
 **** Fit       0.002920
 **** Fit       0.000505
 **** Fit      -0.002409
 **** Fit      -0.005969
 **** Fit      -0.010380
 **** Fit       0.008182
 **** Fit       0.006121
 **** Fit       0.003801
 **** Fit       0.001110
 **** Fit      -0.002117
 **** Fit      -0.006123
 **** Fit      -0.011273
 **** Fit       0.005595
 **** Fit       0.002609
 **** Fit      -0.000836
 **** Fit      -0.005089
 **** Fit       0.004560
 **** Fit       0.000917
 **** Fit      -0.003373
 **** Fit      -0.000811
 **** Fit      -0.001553
 **** Fit      -0.001050
 **** Fit      -0.000467
 **** Fit      -0.000318
 **** Fit      -0.000662
 **** Fit      -0.001319
 **** Fit      -0.002622
 **** Fit      -0.002167
 **** Fit      -0.001435
 **** Fit      -0.000730
 **** Fit      -0.000253
 **** Fit      -0.000032
 **** Fit      -0.000001
 **** Fit      -0.000531
 **** Fit      -0.001225
 **** Fit      -0.002018
 **** Fit      -0.002568
 **** Fit      -0.004110
 **** Fit      -0.003651
 **** Fit      -0.002889
 **** Fit      -0.002010
 **** Fit      -0.001190
 **** Fit      -0.000550
 **** Fit      -0.000130
 **** Fit       0.000096
 **** Fit      -0.001027
 **** Fit      -0.001967
 **** Fit      -0.002937
 **** Fit      -0.003719
 **** Fit      -0.004141
 **** Fit      -0.006136
 **** Fit      -0.005617
 **** Fit      -0.004760
 **** Fit      -0.003715
 **** Fit      -0.002639
 **** Fit      -0.001665
 **** Fit      -0.000877
 **** Fit      -0.000310
 **** Fit       0.000054
 **** Fit      -0.002638
 **** Fit      -0.003908
 **** Fit      -0.005019
 **** Fit      -0.005824
 **** Fit      -0.006214
 **** Fit      -0.008857
 **** Fit      -0.008234
 **** Fit      -0.007209
 **** Fit      -0.005931
 **** Fit      -0.004560
 **** Fit      -0.003239
 **** Fit      -0.002076
 **** Fit      -0.001132
 **** Fit      -0.000428
 **** Fit      -0.004758
 **** Fit      -0.006336
 **** Fit      -0.007642
 **** Fit      -0.008554
 **** Fit      -0.008973
 **** Fit      -0.012504
 **** Fit      -0.011753
 **** Fit      -0.010520
 **** Fit      -0.008962
 **** Fit      -0.007249
 **** Fit      -0.005535
 **** Fit      -0.003945
 **** Fit      -0.002560
 **** Fit      -0.001427
 **** Fit      -0.000553
 **** Fit      -0.007734
 **** Fit      -0.009624
 **** Fit      -0.011154
 **** Fit      -0.012201
 **** Fit      -0.012666
 **** Fit      -0.017436
 **** Fit      -0.016432
 **** Fit      -0.014781
 **** Fit      -0.012695
 **** Fit      -0.010396
 **** Fit      -0.008085
 **** Fit      -0.005916
 **** Fit      -0.003994
 **** Fit      -0.002378
 **** Fit      -0.011040
 **** Fit      -0.013555
 **** Fit      -0.015604
 **** Fit      -0.017016
 **** Fit      -0.017647
 **** Fit      -0.024238
 **** Fit      -0.022861
 **** Fit      -0.020613
 **** Fit      -0.017785
 **** Fit      -0.014678
 **** Fit      -0.011554
 **** Fit      -0.008610
 **** Fit      -0.005973
 **** Fit      -0.003715
 **** Fit      -0.018973
 **** Fit      -0.021748
 **** Fit      -0.023672
 **** Fit      -0.024532
 **** Fit      -0.020098
 **** Fit      -0.015723
 **** Fit      -0.011642
 **** Fit      -0.008014
 **** Fit      -0.013822
 **** Fit       0.000417
 **** Fit       0.000208
 **** Fit       0.000597
 **** Fit       0.000487
 **** Fit       0.000131
 **** Fit      -0.000282
 **** Fit      -0.000503
 **** Fit      -0.000389
 **** Fit       0.000774
 **** Fit       0.000745
 **** Fit       0.000355
 **** Fit      -0.000296
 **** Fit      -0.000977
 **** Fit      -0.001429
 **** Fit      -0.001480
 **** Fit      -0.001100
 **** Fit       0.001057
 **** Fit       0.000993
 **** Fit       0.000455
 **** Fit      -0.000474
 **** Fit      -0.001574
 **** Fit      -0.002539
 **** Fit      -0.003094
 **** Fit      -0.003092
 **** Fit      -0.002538
 **** Fit       0.001106
 **** Fit       0.001471
 **** Fit       0.001324
 **** Fit       0.000589
 **** Fit      -0.000669
 **** Fit      -0.002246
 **** Fit      -0.003828
 **** Fit      -0.005058
 **** Fit      -0.005664
 **** Fit      -0.005553
 **** Fit      -0.004768
 **** Fit      -0.003423
 **** Fit       0.001973
 **** Fit       0.002014
 **** Fit       0.001277
 **** Fit      -0.000250
 **** Fit      -0.002386
 **** Fit      -0.004803
 **** Fit      -0.007061
 **** Fit      -0.008686
 **** Fit      -0.009379
 **** Fit      -0.009106
 **** Fit      -0.007954
 **** Fit      -0.006037
 **** Fit       0.002658
 **** Fit       0.002987
 **** Fit       0.002390
 **** Fit       0.000690
 **** Fit      -0.001980
 **** Fit      -0.005254
 **** Fit      -0.008664
 **** Fit      -0.011645
 **** Fit      -0.013643
 **** Fit       0.004317
 **** Fit       0.003700
 **** Fit       0.001546
 **** Fit      -0.002051
 **** Fit      -0.006515
 **** Fit      -0.011192
 **** Fit      -0.015430
 **** Fit      -0.018567
 -----------------------------------------------------------------
 Leave Link  602 at Thu Sep 24 01:29:52 2015, MaxMem=    6291456 cpu:      15.7

 Test job not archived.
 1\1\GINC-COMPUTE-2-11\FOpt\RHF\6-31G(d)\C26H28N2O3\SHUNZHOU\24-Sep-201
 5\0\\#HF/6-31G* SCF=tight Test Pop=MK iop(6/33=2) iop(6/42=6) opt\\rem
 ark line goes here\\0,1\C,17.6929921872,-0.2132665955,13.5459191183\O,
 16.5482893139,-0.0750304392,12.7533822013\C,15.9150152301,-1.164324595
 6,12.277460449\C,16.3298835662,-2.4621520168,12.5576006539\C,15.625751
 7603,-3.5213156869,12.0187672955\C,14.5240516229,-3.3199343181,11.2110
 402416\C,14.1181022702,-2.0179709094,10.9367141967\O,13.0524240017,-1.
 7296911802,10.1691738526\C,12.3733393096,-2.746482431,9.4873333589\C,1
 4.804801159,-0.9206673861,11.4645019469\C,14.3644184207,0.475399337,11
 .1550826466\C,13.9463347084,1.334415207,12.1598146709\C,13.5474315113,
 2.6288542217,11.8686213251\C,13.524272883,3.0678077135,10.5569291487\N
 ,13.1302853358,4.3799076432,10.1848806251\C,14.0297253572,5.1375698957
 ,9.2917404612\C,14.9810178374,6.0285244972,10.0853242537\C,14.78232886
 88,4.187202906,8.3404666519\C,14.0399937813,2.8580133035,8.1534718279\
 N,14.6900851405,2.0760504884,7.1318581347\C,14.1023428909,1.0066146145
 ,6.4653635848\C,14.9037001796,0.2121165237,5.6387699962\C,14.362864078
 1,-0.8354373805,4.9220739461\C,13.0077850446,-1.1249260148,4.999041740
 7\C,12.2126836573,-0.3434785174,5.8167478738\C,12.7439634506,0.7062617
 402,6.5506534488\C,13.958942349,2.2255909154,9.5348821436\C,14.3795503
 239,0.9462963177,9.8445416863\C,11.9488698761,4.973200484,10.537129763
 8\C,10.8953734704,4.1518614618,11.2545823646\O,11.7256598729,6.1229983
 045,10.2643856235\H,13.3823704694,5.7670807472,8.7021095798\H,13.03957
 72367,3.0894530614,7.8058550869\H,17.4779325576,-0.7447421328,14.46669
 1183\H,18.4862388638,-0.7250817746,13.0119347424\H,18.0143052258,0.789
 9014476,13.7825650286\H,17.1828353353,-2.6509372392,13.1779669698\H,15
 .9428618209,-4.5262301386,12.2339174754\H,13.994653119,-4.1614266983,1
 0.8113533352\H,11.622552519,-2.2527673002,8.8899038668\H,13.0399398329
 ,-3.2983886651,8.8342578013\H,11.8904271896,-3.4317067965,10.175752534
 8\H,13.949943723,1.0009697402,13.1808354583\H,13.2631061014,3.29336418
 81,12.6633738276\H,15.6365143712,6.5758977675,9.4134356497\H,14.422382
 7644,6.7447230986,10.674342029\H,15.6001241505,5.4333810819,10.7501207
 754\H,14.914341773,4.6755696342,7.3814264702\H,15.7735541122,3.9705408
 675,8.7315477529\H,15.6760883005,1.9899947681,7.2472107664\H,15.954404
 8237,0.4322285142,5.5552814194\H,15.0052183736,-1.4272992379,4.2937582
 193\H,12.5867829797,-1.937439675,4.4353550934\H,11.1591568888,-0.54871
 35082,5.8956219948\H,12.0970180479,1.2746037281,7.1902765316\H,14.7145
 772001,0.2943731864,9.0614629076\H,11.0385587993,4.2148801997,12.32737
 94949\H,9.9395659216,4.5983559528,11.019742469\H,10.8986880399,3.10840
 70793,10.9732663036\\Version=AM64L-G03RevD.02\State=1-A\HF=-1334.36220
 38\RMSD=8.144e-09\RMSF=2.384e-06\Thermal=0.\Dipole=1.1188425,-2.065188
 4,0.6134507\PG=C01 [X(C26H28N2O3)]\\@


    WHAT WE HAVE LEARNED
 IS LIKE A HANDFUL OF EARTH;
  WHAT WE HAVE YET TO LEARN
   IS LIKE THE WHOLE WORLD.

         -- AVVAYIAR
 Job cpu time:  0 days  9 hours 22 minutes 10.9 seconds.
 File lengths (MBytes):  RWF=    179 Int=      0 D2E=      0 Chk=     25 Scr=      1
 Normal termination of Gaussian 03 at Thu Sep 24 01:29:52 2015.
