 Entering Gaussian System, Link 0=g03
 Initial command:
 /share/apps//g03/l1.exe /state/partition1/mmpbsa.Ld7495/Gau-7517.inp -scrdir=/state/partition1/mmpbsa.Ld7495/
 Entering Link 1 = /share/apps//g03/l1.exe PID=      7518.
  
 Copyright (c) 1988,1990,1992,1993,1995,1998,2003,2004, Gaussian, Inc.
                  All Rights Reserved.
  
 This is the Gaussian(R) 03 program.  It is based on the
 the Gaussian(R) 98 system (copyright 1998, Gaussian, Inc.),
 the Gaussian(R) 94 system (copyright 1995, Gaussian, Inc.),
 the Gaussian 92(TM) system (copyright 1992, Gaussian, Inc.),
 the Gaussian 90(TM) system (copyright 1990, Gaussian, Inc.),
 the Gaussian 88(TM) system (copyright 1988, Gaussian, Inc.),
 the Gaussian 86(TM) system (copyright 1986, Carnegie Mellon
 University), and the Gaussian 82(TM) system (copyright 1983,
 Carnegie Mellon University). Gaussian is a federally registered
 trademark of Gaussian, Inc.
  
 This software contains proprietary and confidential information,
 including trade secrets, belonging to Gaussian, Inc.
  
 This software is provided under written license and may be
 used, copied, transmitted, or stored only in accord with that
 written license.
  
 The following legend is applicable only to US Government
 contracts under FAR:
  
                    RESTRICTED RIGHTS LEGEND
  
 Use, reproduction and disclosure by the US Government is
 subject to restrictions as set forth in subparagraphs (a)
 and (c) of the Commercial Computer Software - Restricted
 Rights clause in FAR 52.227-19.
  
 Gaussian, Inc.
 340 Quinnipiac St., Bldg. 40, Wallingford CT 06492
  
  
 ---------------------------------------------------------------
 Warning -- This program may not be used in any manner that
 competes with the business of Gaussian, Inc. or will provide
 assistance to any competitor of Gaussian, Inc.  The licensee
 of this program is prohibited from giving any competitor of
 Gaussian, Inc. access to this program.  By using this program,
 the user acknowledges that Gaussian, Inc. is engaged in the
 business of creating and licensing software in the field of
 computational chemistry and represents and warrants to the
 licensee that it is not a competitor of Gaussian, Inc. and that
 it will not use this program in any manner prohibited above.
 ---------------------------------------------------------------
  

 Cite this work as:
 Gaussian 03, Revision D.02,
 M. J. Frisch, G. W. Trucks, H. B. Schlegel, G. E. Scuseria, 
 M. A. Robb, J. R. Cheeseman, J. A. Montgomery, Jr., T. Vreven, 
 K. N. Kudin, J. C. Burant, J. M. Millam, S. S. Iyengar, J. Tomasi, 
 V. Barone, B. Mennucci, M. Cossi, G. Scalmani, N. Rega, 
 G. A. Petersson, H. Nakatsuji, M. Hada, M. Ehara, K. Toyota, 
 R. Fukuda, J. Hasegawa, M. Ishida, T. Nakajima, Y. Honda, O. Kitao, 
 H. Nakai, M. Klene, X. Li, J. E. Knox, H. P. Hratchian, J. B. Cross, 
 V. Bakken, C. Adamo, J. Jaramillo, R. Gomperts, R. E. Stratmann, 
 O. Yazyev, A. J. Austin, R. Cammi, C. Pomelli, J. W. Ochterski, 
 P. Y. Ayala, K. Morokuma, G. A. Voth, P. Salvador, J. J. Dannenberg, 
 V. G. Zakrzewski, S. Dapprich, A. D. Daniels, M. C. Strain, 
 O. Farkas, D. K. Malick, A. D. Rabuck, K. Raghavachari, 
 J. B. Foresman, J. V. Ortiz, Q. Cui, A. G. Baboul, S. Clifford, 
 J. Cioslowski, B. B. Stefanov, G. Liu, A. Liashenko, P. Piskorz, 
 I. Komaromi, R. L. Martin, D. J. Fox, T. Keith, M. A. Al-Laham, 
 C. Y. Peng, A. Nanayakkara, M. Challacombe, P. M. W. Gill, 
 B. Johnson, W. Chen, M. W. Wong, C. Gonzalez, and J. A. Pople, 
 Gaussian, Inc., Wallingford CT, 2004.
 
 ******************************************
 Gaussian 03:  AM64L-G03RevD.02  1-Mar-2006
                23-Sep-2015 
 ******************************************
 %chk=molecule
 ------------------------------------------------------------
 #HF/6-31G* SCF=tight Test Pop=MK iop(6/33=2) iop(6/42=6) opt
 ------------------------------------------------------------
 1/18=20,38=1/1,3;
 2/9=110,17=6,18=5,40=1/2;
 3/5=1,6=6,7=1,11=9,16=1,25=1,30=1/1,2,3;
 4//1;
 5/5=2,32=2,38=5/2;
 6/7=2,8=2,9=2,10=2,15=8,20=1,28=1,33=2,42=6/1,2;
 7//1,2,3,16;
 1/18=20/3(3);
 2/9=110/2;
 6/7=2,8=2,9=2,10=2,15=8,19=2,20=1,28=1,33=2,42=6/1,2;
 99//99;
 2/9=110/2;
 3/5=1,6=6,7=1,11=9,16=1,25=1,30=1/1,2,3;
 4/5=5,16=3/1;
 5/5=2,32=2,38=5/2;
 7//1,2,3,16;
 1/18=20/3(-5);
 2/9=110/2;
 6/7=2,8=2,9=2,10=2,15=8,19=2,20=1,28=1,33=2,42=6/1,2;
 99/9=1/99;
 ---------------------
 remark line goes here
 ---------------------
 Symbolic Z-matrix:
 Charge =  0 Multiplicity = 1
 C                     14.917    6.235     9.86 
 C                     13.964    5.209     9.216 
 C                     14.734    4.268     8.251 
 C                     14.072    2.892     8.119 
 N                     14.743    2.083     7.103 
 C                     14.165    0.929     6.548 
 C                     12.829    0.537     6.801 
 C                     12.311   -0.642     6.231 
 C                     13.12    -1.441     5.401 
 C                     14.449   -1.057     5.143 
 C                     14.967    0.122     5.713 
 C                     14.002    2.299     9.524 
 C                     14.41     0.978     9.818 
 C                     14.371    0.47      11.133 
 C                     13.951    1.331     12.169 
 C                     13.563    2.655     11.896 
 C                     13.556    3.142     10.568 
 N                     13.173    4.49      10.251 
 C                     12.019    5.062     10.705 
 C                     10.98     4.229     11.462 
 O                     11.735    6.248     10.498 
 C                     14.776   -0.921     11.411 
 C                     14.482   -2.076     10.63 
 C                     13.691   -2.206     9.359 
 N                     15.011   -3.159     11.184 
 O                     15.665   -2.728     12.346 
 C                     15.514   -1.381     12.466 
 C                     16.16    -0.737     13.645 
 H                     13.265    5.756     8.579 
 H                     13.048    3.065     7.785 
 H                     14.375    6.973     10.453 
 H                     15.637    5.748     10.518 
 H                     15.477    6.78      9.1 
 H                     14.825    4.748     7.275 
 H                     15.754    4.128     8.614 
 H                     15.725    2.272     6.929 
 H                     12.18     1.118     7.44 
 H                     11.29    -0.934     6.433 
 H                     12.722   -2.347     4.965 
 H                     15.074   -1.667     4.506 
 H                     15.991    0.397     5.504 
 H                     14.775    0.342     9.028 
 H                     13.923    0.98      13.191 
 H                     13.278    3.291     12.721 
 H                     10.914    3.213     11.072 
 H                     9.992     4.677     11.359 
 H                     11.214    4.191     12.525 
 H                     12.862   -1.499     9.338 
 H                     14.316   -2.011     8.487 
 H                     13.27    -3.205     9.247 
 H                     17.007   -1.326     13.997 
 H                     16.527    0.258     13.392 
 H                     15.452   -0.639     14.468 
 

 GradGradGradGradGradGradGradGradGradGradGradGradGradGradGradGradGradGrad
 Berny optimization.
 Initialization pass.
                           ----------------------------
                           !    Initial Parameters    !
                           ! (Angstroms and Degrees)  !
 --------------------------                            --------------------------
 ! Name  Definition              Value          Derivative Info.                !
 --------------------------------------------------------------------------------
 ! R1    R(1,2)                  1.5413         estimate D2E/DX2                !
 ! R2    R(1,31)                 1.0909         estimate D2E/DX2                !
 ! R3    R(1,32)                 1.0902         estimate D2E/DX2                !
 ! R4    R(1,33)                 1.0901         estimate D2E/DX2                !
 ! R5    R(2,3)                  1.5523         estimate D2E/DX2                !
 ! R6    R(2,18)                 1.4879         estimate D2E/DX2                !
 ! R7    R(2,29)                 1.0925         estimate D2E/DX2                !
 ! R8    R(3,4)                  1.5327         estimate D2E/DX2                !
 ! R9    R(3,34)                 1.0914         estimate D2E/DX2                !
 ! R10   R(3,35)                 1.0917         estimate D2E/DX2                !
 ! R11   R(4,5)                  1.4618         estimate D2E/DX2                !
 ! R12   R(4,12)                 1.5266         estimate D2E/DX2                !
 ! R13   R(4,30)                 1.0909         estimate D2E/DX2                !
 ! R14   R(5,6)                  1.4049         estimate D2E/DX2                !
 ! R15   R(5,36)                 1.015          estimate D2E/DX2                !
 ! R16   R(6,7)                  1.4151         estimate D2E/DX2                !
 ! R17   R(6,11)                 1.4113         estimate D2E/DX2                !
 ! R18   R(7,8)                  1.4083         estimate D2E/DX2                !
 ! R19   R(7,37)                 1.0803         estimate D2E/DX2                !
 ! R20   R(8,9)                  1.4078         estimate D2E/DX2                !
 ! R21   R(8,38)                 1.081          estimate D2E/DX2                !
 ! R22   R(9,10)                 1.4072         estimate D2E/DX2                !
 ! R23   R(9,39)                 1.0814         estimate D2E/DX2                !
 ! R24   R(10,11)                1.4083         estimate D2E/DX2                !
 ! R25   R(10,40)                1.081          estimate D2E/DX2                !
 ! R26   R(11,41)                1.0807         estimate D2E/DX2                !
 ! R27   R(12,13)                1.4135         estimate D2E/DX2                !
 ! R28   R(12,17)                1.414          estimate D2E/DX2                !
 ! R29   R(13,14)                1.4103         estimate D2E/DX2                !
 ! R30   R(13,42)                1.0779         estimate D2E/DX2                !
 ! R31   R(14,15)                1.411          estimate D2E/DX2                !
 ! R32   R(14,22)                1.4752         estimate D2E/DX2                !
 ! R33   R(15,16)                1.4064         estimate D2E/DX2                !
 ! R34   R(15,43)                1.081          estimate D2E/DX2                !
 ! R35   R(16,17)                1.4145         estimate D2E/DX2                !
 ! R36   R(16,44)                1.08           estimate D2E/DX2                !
 ! R37   R(17,18)                1.4368         estimate D2E/DX2                !
 ! R38   R(18,19)                1.3657         estimate D2E/DX2                !
 ! R39   R(19,20)                1.5318         estimate D2E/DX2                !
 ! R40   R(19,21)                1.237          estimate D2E/DX2                !
 ! R41   R(20,45)                1.0903         estimate D2E/DX2                !
 ! R42   R(20,46)                1.0897         estimate D2E/DX2                !
 ! R43   R(20,47)                1.0891         estimate D2E/DX2                !
 ! R44   R(22,23)                1.4249         estimate D2E/DX2                !
 ! R45   R(22,27)                1.3672         estimate D2E/DX2                !
 ! R46   R(23,24)                1.5027         estimate D2E/DX2                !
 ! R47   R(23,25)                1.3265         estimate D2E/DX2                !
 ! R48   R(24,48)                1.0897         estimate D2E/DX2                !
 ! R49   R(24,49)                1.0904         estimate D2E/DX2                !
 ! R50   R(24,50)                1.0899         estimate D2E/DX2                !
 ! R51   R(25,26)                1.4013         estimate D2E/DX2                !
 ! R52   R(26,27)                1.3607         estimate D2E/DX2                !
 ! R53   R(27,28)                1.4907         estimate D2E/DX2                !
 ! R54   R(28,51)                1.0901         estimate D2E/DX2                !
 ! R55   R(28,52)                1.0903         estimate D2E/DX2                !
 ! R56   R(28,53)                1.09           estimate D2E/DX2                !
 ! A1    A(2,1,31)             111.7315         estimate D2E/DX2                !
 ! A2    A(2,1,32)             111.2952         estimate D2E/DX2                !
 ! A3    A(2,1,33)             111.0479         estimate D2E/DX2                !
 ! A4    A(31,1,32)            107.5922         estimate D2E/DX2                !
 ! A5    A(31,1,33)            107.2177         estimate D2E/DX2                !
 ! A6    A(32,1,33)            107.75           estimate D2E/DX2                !
 ! A7    A(1,2,3)              110.8898         estimate D2E/DX2                !
 ! A8    A(1,2,18)             111.0837         estimate D2E/DX2                !
 ! A9    A(1,2,29)             107.8141         estimate D2E/DX2                !
 ! A10   A(3,2,18)             113.7786         estimate D2E/DX2                !
 ! A11   A(3,2,29)             104.9763         estimate D2E/DX2                !
 ! A12   A(18,2,29)            107.902          estimate D2E/DX2                !
 ! A13   A(2,3,4)              112.5522         estimate D2E/DX2                !
 ! A14   A(2,3,34)             109.3093         estimate D2E/DX2                !
 ! A15   A(2,3,35)             109.5421         estimate D2E/DX2                !
 ! A16   A(4,3,34)             110.7217         estimate D2E/DX2                !
 ! A17   A(4,3,35)             108.4859         estimate D2E/DX2                !
 ! A18   A(34,3,35)            106.0121         estimate D2E/DX2                !
 ! A19   A(3,4,5)              111.0046         estimate D2E/DX2                !
 ! A20   A(3,4,12)             106.8147         estimate D2E/DX2                !
 ! A21   A(3,4,30)             106.8241         estimate D2E/DX2                !
 ! A22   A(5,4,12)             116.4697         estimate D2E/DX2                !
 ! A23   A(5,4,30)             107.8082         estimate D2E/DX2                !
 ! A24   A(12,4,30)            107.4779         estimate D2E/DX2                !
 ! A25   A(4,5,6)              122.7031         estimate D2E/DX2                !
 ! A26   A(4,5,36)             117.3975         estimate D2E/DX2                !
 ! A27   A(6,5,36)             118.8971         estimate D2E/DX2                !
 ! A28   A(5,6,7)              123.046          estimate D2E/DX2                !
 ! A29   A(5,6,11)             118.0102         estimate D2E/DX2                !
 ! A30   A(7,6,11)             118.9397         estimate D2E/DX2                !
 ! A31   A(6,7,8)              120.4512         estimate D2E/DX2                !
 ! A32   A(6,7,37)             121.5965         estimate D2E/DX2                !
 ! A33   A(8,7,37)             117.9487         estimate D2E/DX2                !
 ! A34   A(7,8,9)              120.1602         estimate D2E/DX2                !
 ! A35   A(7,8,38)             119.863          estimate D2E/DX2                !
 ! A36   A(9,8,38)             119.9767         estimate D2E/DX2                !
 ! A37   A(8,9,10)             119.7323         estimate D2E/DX2                !
 ! A38   A(8,9,39)             120.1151         estimate D2E/DX2                !
 ! A39   A(10,9,39)            120.1525         estimate D2E/DX2                !
 ! A40   A(9,10,11)            120.1074         estimate D2E/DX2                !
 ! A41   A(9,10,40)            120.0066         estimate D2E/DX2                !
 ! A42   A(11,10,40)           119.8859         estimate D2E/DX2                !
 ! A43   A(6,11,10)            120.6088         estimate D2E/DX2                !
 ! A44   A(6,11,41)            120.4901         estimate D2E/DX2                !
 ! A45   A(10,11,41)           118.9006         estimate D2E/DX2                !
 ! A46   A(4,12,13)            122.7663         estimate D2E/DX2                !
 ! A47   A(4,12,17)            117.5408         estimate D2E/DX2                !
 ! A48   A(13,12,17)           119.6456         estimate D2E/DX2                !
 ! A49   A(12,13,14)           121.5079         estimate D2E/DX2                !
 ! A50   A(12,13,42)           119.7846         estimate D2E/DX2                !
 ! A51   A(14,13,42)           118.7008         estimate D2E/DX2                !
 ! A52   A(13,14,15)           118.2326         estimate D2E/DX2                !
 ! A53   A(13,14,22)           120.5168         estimate D2E/DX2                !
 ! A54   A(15,14,22)           121.2466         estimate D2E/DX2                !
 ! A55   A(14,15,16)           120.9324         estimate D2E/DX2                !
 ! A56   A(14,15,43)           120.2479         estimate D2E/DX2                !
 ! A57   A(16,15,43)           118.8198         estimate D2E/DX2                !
 ! A58   A(15,16,17)           120.5119         estimate D2E/DX2                !
 ! A59   A(15,16,44)           118.6141         estimate D2E/DX2                !
 ! A60   A(17,16,44)           120.8727         estimate D2E/DX2                !
 ! A61   A(12,17,16)           119.1008         estimate D2E/DX2                !
 ! A62   A(12,17,18)           118.7192         estimate D2E/DX2                !
 ! A63   A(16,17,18)           122.1058         estimate D2E/DX2                !
 ! A64   A(2,18,17)            117.7191         estimate D2E/DX2                !
 ! A65   A(2,18,19)            118.5598         estimate D2E/DX2                !
 ! A66   A(17,18,19)           123.0164         estimate D2E/DX2                !
 ! A67   A(18,19,20)           120.6422         estimate D2E/DX2                !
 ! A68   A(18,19,21)           122.6812         estimate D2E/DX2                !
 ! A69   A(20,19,21)           116.6386         estimate D2E/DX2                !
 ! A70   A(19,20,45)           111.7796         estimate D2E/DX2                !
 ! A71   A(19,20,46)           110.1633         estimate D2E/DX2                !
 ! A72   A(19,20,47)           110.8289         estimate D2E/DX2                !
 ! A73   A(45,20,46)           107.1225         estimate D2E/DX2                !
 ! A74   A(45,20,47)           109.2458         estimate D2E/DX2                !
 ! A75   A(46,20,47)           107.5417         estimate D2E/DX2                !
 ! A76   A(14,22,23)           127.1837         estimate D2E/DX2                !
 ! A77   A(14,22,27)           127.6516         estimate D2E/DX2                !
 ! A78   A(23,22,27)           105.1645         estimate D2E/DX2                !
 ! A79   A(22,23,24)           129.9657         estimate D2E/DX2                !
 ! A80   A(22,23,25)           110.5228         estimate D2E/DX2                !
 ! A81   A(24,23,25)           119.5075         estimate D2E/DX2                !
 ! A82   A(23,24,48)           111.1382         estimate D2E/DX2                !
 ! A83   A(23,24,49)           111.0517         estimate D2E/DX2                !
 ! A84   A(23,24,50)           111.6887         estimate D2E/DX2                !
 ! A85   A(48,24,49)           107.734          estimate D2E/DX2                !
 ! A86   A(48,24,50)           107.3886         estimate D2E/DX2                !
 ! A87   A(49,24,50)           107.6469         estimate D2E/DX2                !
 ! A88   A(23,25,26)           106.339          estimate D2E/DX2                !
 ! A89   A(25,26,27)           109.0139         estimate D2E/DX2                !
 ! A90   A(22,27,26)           108.9598         estimate D2E/DX2                !
 ! A91   A(22,27,28)           134.337          estimate D2E/DX2                !
 ! A92   A(26,27,28)           116.7            estimate D2E/DX2                !
 ! A93   A(27,28,51)           111.0202         estimate D2E/DX2                !
 ! A94   A(27,28,52)           110.8919         estimate D2E/DX2                !
 ! A95   A(27,28,53)           110.7641         estimate D2E/DX2                !
 ! A96   A(51,28,52)           107.8481         estimate D2E/DX2                !
 ! A97   A(51,28,53)           108.0265         estimate D2E/DX2                !
 ! A98   A(52,28,53)           108.1669         estimate D2E/DX2                !
 ! D1    D(31,1,2,3)           173.5983         estimate D2E/DX2                !
 ! D2    D(31,1,2,18)          -58.8353         estimate D2E/DX2                !
 ! D3    D(31,1,2,29)           59.194          estimate D2E/DX2                !
 ! D4    D(32,1,2,3)           -66.0989         estimate D2E/DX2                !
 ! D5    D(32,1,2,18)           61.4675         estimate D2E/DX2                !
 ! D6    D(32,1,2,29)          179.4969         estimate D2E/DX2                !
 ! D7    D(33,1,2,3)            53.9406         estimate D2E/DX2                !
 ! D8    D(33,1,2,18)         -178.4929         estimate D2E/DX2                !
 ! D9    D(33,1,2,29)          -60.4636         estimate D2E/DX2                !
 ! D10   D(1,2,3,4)            152.2979         estimate D2E/DX2                !
 ! D11   D(1,2,3,34)           -84.2344         estimate D2E/DX2                !
 ! D12   D(1,2,3,35)            31.5199         estimate D2E/DX2                !
 ! D13   D(18,2,3,4)            26.2175         estimate D2E/DX2                !
 ! D14   D(18,2,3,34)          149.6852         estimate D2E/DX2                !
 ! D15   D(18,2,3,35)          -94.5605         estimate D2E/DX2                !
 ! D16   D(29,2,3,4)           -91.5303         estimate D2E/DX2                !
 ! D17   D(29,2,3,34)           31.9374         estimate D2E/DX2                !
 ! D18   D(29,2,3,35)          147.6917         estimate D2E/DX2                !
 ! D19   D(1,2,18,17)         -104.0278         estimate D2E/DX2                !
 ! D20   D(1,2,18,19)           85.2954         estimate D2E/DX2                !
 ! D21   D(3,2,18,17)           21.9503         estimate D2E/DX2                !
 ! D22   D(3,2,18,19)         -148.7265         estimate D2E/DX2                !
 ! D23   D(29,2,18,17)         137.9961         estimate D2E/DX2                !
 ! D24   D(29,2,18,19)         -32.6807         estimate D2E/DX2                !
 ! D25   D(2,3,4,5)            174.206          estimate D2E/DX2                !
 ! D26   D(2,3,4,12)           -57.8562         estimate D2E/DX2                !
 ! D27   D(2,3,4,30)            56.9254         estimate D2E/DX2                !
 ! D28   D(34,3,4,5)            51.5284         estimate D2E/DX2                !
 ! D29   D(34,3,4,12)          179.4662         estimate D2E/DX2                !
 ! D30   D(34,3,4,30)          -65.7522         estimate D2E/DX2                !
 ! D31   D(35,3,4,5)           -64.4121         estimate D2E/DX2                !
 ! D32   D(35,3,4,12)           63.5257         estimate D2E/DX2                !
 ! D33   D(35,3,4,30)          178.3072         estimate D2E/DX2                !
 ! D34   D(3,4,5,6)           -164.0958         estimate D2E/DX2                !
 ! D35   D(3,4,5,36)            27.4968         estimate D2E/DX2                !
 ! D36   D(12,4,5,6)            73.4018         estimate D2E/DX2                !
 ! D37   D(12,4,5,36)          -95.0056         estimate D2E/DX2                !
 ! D38   D(30,4,5,6)           -47.4179         estimate D2E/DX2                !
 ! D39   D(30,4,5,36)          144.1748         estimate D2E/DX2                !
 ! D40   D(3,4,12,13)         -132.1235         estimate D2E/DX2                !
 ! D41   D(3,4,12,17)           45.3649         estimate D2E/DX2                !
 ! D42   D(5,4,12,13)           -7.4587         estimate D2E/DX2                !
 ! D43   D(5,4,12,17)          170.0297         estimate D2E/DX2                !
 ! D44   D(30,4,12,13)         113.5365         estimate D2E/DX2                !
 ! D45   D(30,4,12,17)         -68.9751         estimate D2E/DX2                !
 ! D46   D(4,5,6,7)              7.7419         estimate D2E/DX2                !
 ! D47   D(4,5,6,11)          -171.517          estimate D2E/DX2                !
 ! D48   D(36,5,6,7)           175.9835         estimate D2E/DX2                !
 ! D49   D(36,5,6,11)           -3.2754         estimate D2E/DX2                !
 ! D50   D(5,6,7,8)           -179.0644         estimate D2E/DX2                !
 ! D51   D(5,6,7,37)             0.226          estimate D2E/DX2                !
 ! D52   D(11,6,7,8)             0.188          estimate D2E/DX2                !
 ! D53   D(11,6,7,37)          179.4784         estimate D2E/DX2                !
 ! D54   D(5,6,11,10)          179.1019         estimate D2E/DX2                !
 ! D55   D(5,6,11,41)           -0.6314         estimate D2E/DX2                !
 ! D56   D(7,6,11,10)           -0.1883         estimate D2E/DX2                !
 ! D57   D(7,6,11,41)         -179.9216         estimate D2E/DX2                !
 ! D58   D(6,7,8,9)             -0.0983         estimate D2E/DX2                !
 ! D59   D(6,7,8,38)           179.8182         estimate D2E/DX2                !
 ! D60   D(37,7,8,9)          -179.4141         estimate D2E/DX2                !
 ! D61   D(37,7,8,38)            0.5024         estimate D2E/DX2                !
 ! D62   D(7,8,9,10)             0.0059         estimate D2E/DX2                !
 ! D63   D(7,8,9,39)           179.9005         estimate D2E/DX2                !
 ! D64   D(38,8,9,10)         -179.9105         estimate D2E/DX2                !
 ! D65   D(38,8,9,39)           -0.016          estimate D2E/DX2                !
 ! D66   D(8,9,10,11)           -0.0059         estimate D2E/DX2                !
 ! D67   D(8,9,10,40)         -179.9748         estimate D2E/DX2                !
 ! D68   D(39,9,10,11)        -179.9004         estimate D2E/DX2                !
 ! D69   D(39,9,10,40)           0.1307         estimate D2E/DX2                !
 ! D70   D(9,10,11,6)            0.0988         estimate D2E/DX2                !
 ! D71   D(9,10,11,41)         179.8363         estimate D2E/DX2                !
 ! D72   D(40,10,11,6)        -179.9324         estimate D2E/DX2                !
 ! D73   D(40,10,11,41)         -0.1949         estimate D2E/DX2                !
 ! D74   D(4,12,13,14)         178.0954         estimate D2E/DX2                !
 ! D75   D(4,12,13,42)          -0.9468         estimate D2E/DX2                !
 ! D76   D(17,12,13,14)          0.6578         estimate D2E/DX2                !
 ! D77   D(17,12,13,42)       -178.3844         estimate D2E/DX2                !
 ! D78   D(4,12,17,16)        -175.8151         estimate D2E/DX2                !
 ! D79   D(4,12,17,18)           1.1191         estimate D2E/DX2                !
 ! D80   D(13,12,17,16)          1.7549         estimate D2E/DX2                !
 ! D81   D(13,12,17,18)        178.6891         estimate D2E/DX2                !
 ! D82   D(12,13,14,15)         -1.9816         estimate D2E/DX2                !
 ! D83   D(12,13,14,22)        178.7461         estimate D2E/DX2                !
 ! D84   D(42,13,14,15)        177.0707         estimate D2E/DX2                !
 ! D85   D(42,13,14,22)         -2.2016         estimate D2E/DX2                !
 ! D86   D(13,14,15,16)          0.8984         estimate D2E/DX2                !
 ! D87   D(13,14,15,43)       -179.081          estimate D2E/DX2                !
 ! D88   D(22,14,15,16)       -179.8348         estimate D2E/DX2                !
 ! D89   D(22,14,15,43)          0.1858         estimate D2E/DX2                !
 ! D90   D(13,14,22,23)        -40.7071         estimate D2E/DX2                !
 ! D91   D(13,14,22,27)        139.1079         estimate D2E/DX2                !
 ! D92   D(15,14,22,23)        140.0427         estimate D2E/DX2                !
 ! D93   D(15,14,22,27)        -40.1423         estimate D2E/DX2                !
 ! D94   D(14,15,16,17)          1.5049         estimate D2E/DX2                !
 ! D95   D(14,15,16,44)       -178.0889         estimate D2E/DX2                !
 ! D96   D(43,15,16,17)       -178.5154         estimate D2E/DX2                !
 ! D97   D(43,15,16,44)          1.8908         estimate D2E/DX2                !
 ! D98   D(15,16,17,12)         -2.8297         estimate D2E/DX2                !
 ! D99   D(15,16,17,18)       -179.6555         estimate D2E/DX2                !
 ! D100  D(44,16,17,12)        176.7548         estimate D2E/DX2                !
 ! D101  D(44,16,17,18)         -0.0709         estimate D2E/DX2                !
 ! D102  D(12,17,18,2)         -37.4076         estimate D2E/DX2                !
 ! D103  D(12,17,18,19)        132.8224         estimate D2E/DX2                !
 ! D104  D(16,17,18,2)         139.4298         estimate D2E/DX2                !
 ! D105  D(16,17,18,19)        -50.3401         estimate D2E/DX2                !
 ! D106  D(2,18,19,20)         163.2101         estimate D2E/DX2                !
 ! D107  D(2,18,19,21)         -14.4728         estimate D2E/DX2                !
 ! D108  D(17,18,19,20)         -6.9422         estimate D2E/DX2                !
 ! D109  D(17,18,19,21)        175.375          estimate D2E/DX2                !
 ! D110  D(18,19,20,45)        -35.9002         estimate D2E/DX2                !
 ! D111  D(18,19,20,46)       -154.8776         estimate D2E/DX2                !
 ! D112  D(18,19,20,47)         86.2261         estimate D2E/DX2                !
 ! D113  D(21,19,20,45)        141.9179         estimate D2E/DX2                !
 ! D114  D(21,19,20,46)         22.9405         estimate D2E/DX2                !
 ! D115  D(21,19,20,47)        -95.9558         estimate D2E/DX2                !
 ! D116  D(14,22,23,24)         -0.8756         estimate D2E/DX2                !
 ! D117  D(14,22,23,25)        179.8679         estimate D2E/DX2                !
 ! D118  D(27,22,23,24)        179.2762         estimate D2E/DX2                !
 ! D119  D(27,22,23,25)          0.0197         estimate D2E/DX2                !
 ! D120  D(14,22,27,26)       -179.8904         estimate D2E/DX2                !
 ! D121  D(14,22,27,28)         -0.5981         estimate D2E/DX2                !
 ! D122  D(23,22,27,26)         -0.0431         estimate D2E/DX2                !
 ! D123  D(23,22,27,28)        179.2492         estimate D2E/DX2                !
 ! D124  D(22,23,24,48)        -34.3781         estimate D2E/DX2                !
 ! D125  D(22,23,24,49)         85.5387         estimate D2E/DX2                !
 ! D126  D(22,23,24,50)       -154.2851         estimate D2E/DX2                !
 ! D127  D(25,23,24,48)        144.8218         estimate D2E/DX2                !
 ! D128  D(25,23,24,49)        -95.2614         estimate D2E/DX2                !
 ! D129  D(25,23,24,50)         24.9148         estimate D2E/DX2                !
 ! D130  D(22,23,25,26)          0.0108         estimate D2E/DX2                !
 ! D131  D(24,23,25,26)       -179.3344         estimate D2E/DX2                !
 ! D132  D(23,25,26,27)         -0.0381         estimate D2E/DX2                !
 ! D133  D(25,26,27,22)          0.0515         estimate D2E/DX2                !
 ! D134  D(25,26,27,28)       -179.3819         estimate D2E/DX2                !
 ! D135  D(22,27,28,51)       -153.929          estimate D2E/DX2                !
 ! D136  D(22,27,28,52)        -34.0529         estimate D2E/DX2                !
 ! D137  D(22,27,28,53)         86.055          estimate D2E/DX2                !
 ! D138  D(26,27,28,51)         25.3218         estimate D2E/DX2                !
 ! D139  D(26,27,28,52)        145.1979         estimate D2E/DX2                !
 ! D140  D(26,27,28,53)        -94.6942         estimate D2E/DX2                !
 --------------------------------------------------------------------------------
 Trust Radius=3.00D-01 FncErr=1.00D-07 GrdErr=1.00D-07
 Number of steps in this run= 304 maximum allowed number of steps= 318.
 GradGradGradGradGradGradGradGradGradGradGradGradGradGradGradGradGradGrad

 Stoichiometry    C23H25N3O2
 Framework group  C1[X(C23H25N3O2)]
 Deg. of freedom   153
 Full point group                 C1
 Largest Abelian subgroup         C1      NOp   1
 Largest concise Abelian subgroup C1      NOp   1
                         Standard orientation:                         
 ---------------------------------------------------------------------
 Center     Atomic     Atomic              Coordinates (Angstroms)
 Number     Number      Type              X           Y           Z
 ---------------------------------------------------------------------
    1          6             0        4.542226   -0.252098   -1.964122
    2          6             0        3.713013    0.476564   -0.888447
    3          6             0        2.573116    1.307200   -1.536741
    4          6             0        1.368959    1.480752   -0.604577
    5          7             0        0.376294    2.378497   -1.192495
    6          6             0       -0.654149    2.967440   -0.440726
    7          6             0       -0.730733    2.874496    0.969262
    8          6             0       -1.799457    3.469939    1.666788
    9          6             0       -2.801732    4.166048    0.964892
   10          6             0       -2.731707    4.264598   -0.437123
   11          6             0       -1.662983    3.669156   -1.134648
   12          6             0        0.887141    0.078821   -0.239865
   13          6             0       -0.471868   -0.304228   -0.305506
   14          6             0       -0.882787   -1.618309   -0.000306
   15          6             0        0.107056   -2.566197    0.335456
   16          6             0        1.465841   -2.206419    0.383535
   17          6             0        1.865565   -0.874239    0.126012
   18          7             0        3.244118   -0.470749    0.158741
   19          6             0        4.078717   -0.757087    1.201080
   20          6             0        3.536761   -1.400710    2.481116
   21          8             0        5.284198   -0.480104    1.187041
   22          6             0       -2.310265   -1.987220   -0.049302
   23          6             0       -3.416487   -1.210310    0.401371
   24          6             0       -3.443989    0.146370    1.046882
   25          7             0       -4.555008   -1.859342    0.196006
   26          8             0       -4.210673   -3.081499   -0.396859
   27          6             0       -2.858490   -3.140767   -0.537202
   28          6             0       -2.303905   -4.372354   -1.167856
   29          1             0        4.361530    1.213351   -0.408709
   30          1             0        1.741231    1.947157    0.308627
   31          1             0        5.413331   -0.748982   -1.534775
   32          1             0        3.948804   -1.010568   -2.475108
   33          1             0        4.907671    0.446672   -2.716715
   34          1             0        2.964911    2.277734   -1.846285
   35          1             0        2.235534    0.813543   -2.450038
   36          1             0        0.336685    2.431971   -2.205359
   37          1             0        0.013337    2.340872    1.542575
   38          1             0       -1.850106    3.390559    2.743655
   39          1             0       -3.622887    4.621610    1.501086
   40          1             0       -3.498693    4.798415   -0.980506
   41          1             0       -1.629953    3.754583   -2.211446
   42          1             0       -1.216381    0.413520   -0.609413
   43          1             0       -0.170122   -3.586458    0.560644
   44          1             0        2.194950   -2.969028    0.614126
   45          1             0        2.538803   -1.036231    2.725960
   46          1             0        4.182408   -1.159626    3.325198
   47          1             0        3.509872   -2.485479    2.387731
   48          1             0       -2.575891    0.293752    1.688921
   49          1             0       -3.440143    0.937396    0.296350
   50          1             0       -4.332136    0.280827    1.664056
   51          1             0       -3.041935   -4.846640   -1.814848
   52          1             0       -1.428872   -4.138195   -1.774659
   53          1             0       -2.007022   -5.095442   -0.408119
 ---------------------------------------------------------------------
 Rotational constants (GHZ):      0.2007449      0.1418987      0.0967570
 Standard basis: 6-31G(d) (6D, 7F)
 There are   470 symmetry adapted basis functions of A   symmetry.
 Integral buffers will be    131072 words long.
 Raffenetti 1 integral format.
 Two-electron integral symmetry is turned on.
   470 basis functions,   884 primitive gaussians,   470 cartesian basis functions
   100 alpha electrons      100 beta electrons
       nuclear repulsion energy      2588.4911831681 Hartrees.
 NAtoms=   53 NActive=   53 NUniq=   53 SFac= 7.50D-01 NAtFMM=   80 NAOKFM=F Big=F
 One-electron integrals computed using PRISM.
 NBasis=   470 RedAO= T  NBF=   470
 NBsUse=   470 1.00D-06 NBFU=   470
 Harris functional with IExCor=  205 diagonalized for initial guess.
 ExpMin= 1.61D-01 ExpMax= 5.48D+03 ExpMxC= 8.25D+02 IAcc=1 IRadAn=         1 AccDes= 1.00D-06
 HarFok:  IExCor= 205 AccDes= 1.00D-06 IRadAn=         1 IDoV=1
 ScaDFX=  1.000000  1.000000  1.000000  1.000000
 Initial guess orbital symmetries:
       Occupied  (A) (A) (A) (A) (A) (A) (A) (A) (A) (A) (A) (A)
                 (A) (A) (A) (A) (A) (A) (A) (A) (A) (A) (A) (A)
                 (A) (A) (A) (A) (A) (A) (A) (A) (A) (A) (A) (A)
                 (A) (A) (A) (A) (A) (A) (A) (A) (A) (A) (A) (A)
                 (A) (A) (A) (A) (A) (A) (A) (A) (A) (A) (A) (A)
                 (A) (A) (A) (A) (A) (A) (A) (A) (A) (A) (A) (A)
                 (A) (A) (A) (A) (A) (A) (A) (A) (A) (A) (A) (A)
                 (A) (A) (A) (A) (A) (A) (A) (A) (A) (A) (A) (A)
                 (A) (A) (A) (A)
       Virtual   (A) (A) (A) (A) (A) (A) (A) (A) (A) (A) (A) (A)
                 (A) (A) (A) (A) (A) (A) (A) (A) (A) (A) (A) (A)
                 (A) (A) (A) (A) (A) (A) (A) (A) (A) (A) (A) (A)
                 (A) (A) (A) (A) (A) (A) (A) (A) (A) (A) (A) (A)
                 (A) (A) (A) (A) (A) (A) (A) (A) (A) (A) (A) (A)
                 (A) (A) (A) (A) (A) (A) (A) (A) (A) (A) (A) (A)
                 (A) (A) (A) (A) (A) (A) (A) (A) (A) (A) (A) (A)
                 (A) (A) (A) (A) (A) (A) (A) (A) (A) (A) (A) (A)
                 (A) (A) (A) (A) (A) (A) (A) (A) (A) (A) (A) (A)
                 (A) (A) (A) (A) (A) (A) (A) (A) (A) (A) (A) (A)
                 (A) (A) (A) (A) (A) (A) (A) (A) (A) (A) (A) (A)
                 (A) (A) (A) (A) (A) (A) (A) (A) (A) (A) (A) (A)
                 (A) (A) (A) (A) (A) (A) (A) (A) (A) (A) (A) (A)
                 (A) (A) (A) (A) (A) (A) (A) (A) (A) (A) (A) (A)
                 (A) (A) (A) (A) (A) (A) (A) (A) (A) (A) (A) (A)
                 (A) (A) (A) (A) (A) (A) (A) (A) (A) (A) (A) (A)
                 (A) (A) (A) (A) (A) (A) (A) (A) (A) (A) (A) (A)
                 (A) (A) (A) (A) (A) (A) (A) (A) (A) (A) (A) (A)
                 (A) (A) (A) (A) (A) (A) (A) (A) (A) (A) (A) (A)
                 (A) (A) (A) (A) (A) (A) (A) (A) (A) (A) (A) (A)
                 (A) (A) (A) (A) (A) (A) (A) (A) (A) (A) (A) (A)
                 (A) (A) (A) (A) (A) (A) (A) (A) (A) (A) (A) (A)
                 (A) (A) (A) (A) (A) (A) (A) (A) (A) (A) (A) (A)
                 (A) (A) (A) (A) (A) (A) (A) (A) (A) (A) (A) (A)
                 (A) (A) (A) (A) (A) (A) (A) (A) (A) (A) (A) (A)
                 (A) (A) (A) (A) (A) (A) (A) (A) (A) (A) (A) (A)
                 (A) (A) (A) (A) (A) (A) (A) (A) (A) (A) (A) (A)
                 (A) (A) (A) (A) (A) (A) (A) (A) (A) (A) (A) (A)
                 (A) (A) (A) (A) (A) (A) (A) (A) (A) (A) (A) (A)
                 (A) (A) (A) (A) (A) (A) (A) (A) (A) (A) (A) (A)
                 (A) (A) (A) (A) (A) (A) (A) (A) (A) (A)
 The electronic state of the initial guess is 1-A.
 Requested convergence on RMS density matrix=1.00D-08 within 128 cycles.
 Requested convergence on MAX density matrix=1.00D-06.
 Requested convergence on             energy=1.00D-06.
 No special actions if energy rises.
 Integral accuracy reduced to 1.0D-05 until final iterations.
 Initial convergence to 1.0D-05 achieved.  Increase integral accuracy.
 SCF Done:  E(RHF) =  -1198.55588094     A.U. after   16 cycles
             Convg  =    0.7999D-08             -V/T =  2.0025
             S**2   =   0.0000

 **********************************************************************

            Population analysis using the SCF density.

 **********************************************************************

 Orbital symmetries:
 BldTbl:  Degeneracy threshold= 1.00D-02
       Occupied  (A) (A) (A) (A) (A) (A) (A) (A) (A) (A) (A) (A)
                 (A) (A) (A) (A) (A) (A) (A) (A) (A) (A) (A) (A)
                 (A) (A) (A) (A) (A) (A) (A) (A) (A) (A) (A) (A)
                 (A) (A) (A) (A) (A) (A) (A) (A) (A) (A) (A) (A)
                 (A) (A) (A) (A) (A) (A) (A) (A) (A) (A) (A) (A)
                 (A) (A) (A) (A) (A) (A) (A) (A) (A) (A) (A) (A)
                 (A) (A) (A) (A) (A) (A) (A) (A) (A) (A) (A) (A)
                 (A) (A) (A) (A) (A) (A) (A) (A) (A) (A) (A) (A)
                 (A) (A) (A) (A)
       Virtual   (A) (A) (A) (A) (A) (A) (A) (A) (A) (A) (A) (A)
                 (A) (A) (A) (A) (A) (A) (A) (A) (A) (A) (A) (A)
                 (A) (A) (A) (A) (A) (A) (A) (A) (A) (A) (A) (A)
                 (A) (A) (A) (A) (A) (A) (A) (A) (A) (A) (A) (A)
                 (A) (A) (A) (A) (A) (A) (A) (A) (A) (A) (A) (A)
                 (A) (A) (A) (A) (A) (A) (A) (A) (A) (A) (A) (A)
                 (A) (A) (A) (A) (A) (A) (A) (A) (A) (A) (A) (A)
                 (A) (A) (A) (A) (A) (A) (A) (A) (A) (A) (A) (A)
                 (A) (A) (A) (A) (A) (A) (A) (A) (A) (A) (A) (A)
                 (A) (A) (A) (A) (A) (A) (A) (A) (A) (A) (A) (A)
                 (A) (A) (A) (A) (A) (A) (A) (A) (A) (A) (A) (A)
                 (A) (A) (A) (A) (A) (A) (A) (A) (A) (A) (A) (A)
                 (A) (A) (A) (A) (A) (A) (A) (A) (A) (A) (A) (A)
                 (A) (A) (A) (A) (A) (A) (A) (A) (A) (A) (A) (A)
                 (A) (A) (A) (A) (A) (A) (A) (A) (A) (A) (A) (A)
                 (A) (A) (A) (A) (A) (A) (A) (A) (A) (A) (A) (A)
                 (A) (A) (A) (A) (A) (A) (A) (A) (A) (A) (A) (A)
                 (A) (A) (A) (A) (A) (A) (A) (A) (A) (A) (A) (A)
                 (A) (A) (A) (A) (A) (A) (A) (A) (A) (A) (A) (A)
                 (A) (A) (A) (A) (A) (A) (A) (A) (A) (A) (A) (A)
                 (A) (A) (A) (A) (A) (A) (A) (A) (A) (A) (A) (A)
                 (A) (A) (A) (A) (A) (A) (A) (A) (A) (A) (A) (A)
                 (A) (A) (A) (A) (A) (A) (A) (A) (A) (A) (A) (A)
                 (A) (A) (A) (A) (A) (A) (A) (A) (A) (A) (A) (A)
                 (A) (A) (A) (A) (A) (A) (A) (A) (A) (A) (A) (A)
                 (A) (A) (A) (A) (A) (A) (A) (A) (A) (A) (A) (A)
                 (A) (A) (A) (A) (A) (A) (A) (A) (A) (A) (A) (A)
                 (A) (A) (A) (A) (A) (A) (A) (A) (A) (A) (A) (A)
                 (A) (A) (A) (A) (A) (A) (A) (A) (A) (A) (A) (A)
                 (A) (A) (A) (A) (A) (A) (A) (A) (A) (A) (A) (A)
                 (A) (A) (A) (A) (A) (A) (A) (A) (A) (A)
 The electronic state is 1-A.
 Alpha  occ. eigenvalues --  -20.64078 -20.52444 -15.61098 -15.61078 -15.58330
 Alpha  occ. eigenvalues --  -11.35915 -11.32011 -11.29845 -11.29482 -11.29163
 Alpha  occ. eigenvalues --  -11.28564 -11.28252 -11.26436 -11.26029 -11.25706
 Alpha  occ. eigenvalues --  -11.25409 -11.25066 -11.25048 -11.24750 -11.24688
 Alpha  occ. eigenvalues --  -11.24670 -11.24036 -11.23613 -11.23546 -11.23526
 Alpha  occ. eigenvalues --  -11.23101 -11.22923 -11.21939  -1.47403  -1.37373
 Alpha  occ. eigenvalues --   -1.26977  -1.24636  -1.16942  -1.15417  -1.13494
 Alpha  occ. eigenvalues --   -1.09801  -1.08741  -1.04293  -1.02233  -1.01291
 Alpha  occ. eigenvalues --   -1.00689  -0.98903  -0.97632  -0.97408  -0.95738
 Alpha  occ. eigenvalues --   -0.89074  -0.86232  -0.85284  -0.83597  -0.81547
 Alpha  occ. eigenvalues --   -0.80235  -0.77870  -0.76563  -0.75708  -0.72014
 Alpha  occ. eigenvalues --   -0.69902  -0.68762  -0.68086  -0.67525  -0.66519
 Alpha  occ. eigenvalues --   -0.65416  -0.64992  -0.63078  -0.62503  -0.62297
 Alpha  occ. eigenvalues --   -0.61361  -0.60549  -0.59290  -0.59179  -0.58844
 Alpha  occ. eigenvalues --   -0.58694  -0.58597  -0.58322  -0.57629  -0.56807
 Alpha  occ. eigenvalues --   -0.56400  -0.55979  -0.55618  -0.54390  -0.53752
 Alpha  occ. eigenvalues --   -0.53369  -0.53021  -0.51967  -0.51633  -0.51209
 Alpha  occ. eigenvalues --   -0.50450  -0.49457  -0.49289  -0.48507  -0.47549
 Alpha  occ. eigenvalues --   -0.45879  -0.42807  -0.42574  -0.41291  -0.39568
 Alpha  occ. eigenvalues --   -0.35953  -0.34578  -0.33484  -0.30035  -0.28959
 Alpha virt. eigenvalues --    0.10275   0.11993   0.13326   0.14614   0.15449
 Alpha virt. eigenvalues --    0.19201   0.21782   0.22230   0.22412   0.23217
 Alpha virt. eigenvalues --    0.23652   0.24370   0.25077   0.25714   0.27504
 Alpha virt. eigenvalues --    0.28143   0.28608   0.28957   0.29479   0.29940
 Alpha virt. eigenvalues --    0.30260   0.30671   0.31018   0.31366   0.31750
 Alpha virt. eigenvalues --    0.32280   0.33223   0.33550   0.34091   0.34557
 Alpha virt. eigenvalues --    0.35553   0.35735   0.36417   0.36902   0.37082
 Alpha virt. eigenvalues --    0.37384   0.37861   0.38319   0.39349   0.41024
 Alpha virt. eigenvalues --    0.42142   0.42750   0.43463   0.43841   0.44595
 Alpha virt. eigenvalues --    0.45597   0.46102   0.47779   0.48190   0.49100
 Alpha virt. eigenvalues --    0.50223   0.51785   0.53003   0.53256   0.54288
 Alpha virt. eigenvalues --    0.55625   0.55887   0.57866   0.60441   0.61971
 Alpha virt. eigenvalues --    0.65135   0.66273   0.67808   0.69398   0.70874
 Alpha virt. eigenvalues --    0.71596   0.71961   0.72487   0.72828   0.73237
 Alpha virt. eigenvalues --    0.74024   0.74677   0.75054   0.75869   0.76697
 Alpha virt. eigenvalues --    0.77315   0.77473   0.78379   0.78452   0.79088
 Alpha virt. eigenvalues --    0.79662   0.80017   0.80446   0.80565   0.81569
 Alpha virt. eigenvalues --    0.81760   0.82238   0.82902   0.83420   0.83665
 Alpha virt. eigenvalues --    0.83781   0.84917   0.85872   0.86245   0.87227
 Alpha virt. eigenvalues --    0.87975   0.89134   0.89306   0.90021   0.90517
 Alpha virt. eigenvalues --    0.91415   0.92091   0.93845   0.94114   0.94782
 Alpha virt. eigenvalues --    0.95268   0.95867   0.97151   0.98212   0.98358
 Alpha virt. eigenvalues --    0.99390   1.00995   1.01347   1.02479   1.03276
 Alpha virt. eigenvalues --    1.03911   1.04628   1.05774   1.06903   1.07824
 Alpha virt. eigenvalues --    1.08459   1.08594   1.09144   1.09523   1.10695
 Alpha virt. eigenvalues --    1.11140   1.11399   1.11654   1.11953   1.12367
 Alpha virt. eigenvalues --    1.13008   1.13862   1.14819   1.15521   1.15734
 Alpha virt. eigenvalues --    1.16002   1.16507   1.16648   1.16992   1.17868
 Alpha virt. eigenvalues --    1.18367   1.18954   1.19173   1.19398   1.19830
 Alpha virt. eigenvalues --    1.20122   1.20690   1.20842   1.21608   1.22154
 Alpha virt. eigenvalues --    1.22845   1.23202   1.23646   1.24120   1.25005
 Alpha virt. eigenvalues --    1.25355   1.26634   1.27530   1.28384   1.29433
 Alpha virt. eigenvalues --    1.29739   1.30063   1.30963   1.31600   1.33131
 Alpha virt. eigenvalues --    1.34677   1.35497   1.36565   1.37445   1.38150
 Alpha virt. eigenvalues --    1.39497   1.39971   1.42167   1.42316   1.43374
 Alpha virt. eigenvalues --    1.44786   1.45425   1.47521   1.48245   1.49910
 Alpha virt. eigenvalues --    1.50769   1.51098   1.55020   1.56640   1.59441
 Alpha virt. eigenvalues --    1.60928   1.61316   1.62223   1.62892   1.64557
 Alpha virt. eigenvalues --    1.64777   1.65511   1.68143   1.69458   1.70635
 Alpha virt. eigenvalues --    1.71118   1.71922   1.72442   1.73450   1.74033
 Alpha virt. eigenvalues --    1.75583   1.76399   1.77201   1.77251   1.78666
 Alpha virt. eigenvalues --    1.78791   1.78982   1.80705   1.82025   1.84879
 Alpha virt. eigenvalues --    1.85847   1.87509   1.88807   1.92401   1.94733
 Alpha virt. eigenvalues --    1.96870   1.97536   1.98729   2.00864   2.01164
 Alpha virt. eigenvalues --    2.01955   2.04388   2.04813   2.05372   2.07675
 Alpha virt. eigenvalues --    2.08336   2.08790   2.10328   2.10938   2.11711
 Alpha virt. eigenvalues --    2.12125   2.12624   2.13651   2.14204   2.15598
 Alpha virt. eigenvalues --    2.16388   2.17278   2.17843   2.19611   2.20546
 Alpha virt. eigenvalues --    2.21422   2.22859   2.23187   2.23457   2.24042
 Alpha virt. eigenvalues --    2.25158   2.26052   2.26151   2.27365   2.29567
 Alpha virt. eigenvalues --    2.30180   2.30638   2.32224   2.32930   2.35452
 Alpha virt. eigenvalues --    2.35891   2.37434   2.38884   2.40517   2.40892
 Alpha virt. eigenvalues --    2.41318   2.41982   2.44623   2.45102   2.45453
 Alpha virt. eigenvalues --    2.46346   2.47653   2.47826   2.49781   2.50180
 Alpha virt. eigenvalues --    2.50712   2.51311   2.51673   2.52980   2.54047
 Alpha virt. eigenvalues --    2.55065   2.56061   2.56607   2.57523   2.58991
 Alpha virt. eigenvalues --    2.59994   2.60971   2.61270   2.62077   2.62189
 Alpha virt. eigenvalues --    2.62823   2.65247   2.66253   2.67409   2.68478
 Alpha virt. eigenvalues --    2.70872   2.73581   2.74887   2.76314   2.77242
 Alpha virt. eigenvalues --    2.77706   2.79367   2.80330   2.81403   2.82404
 Alpha virt. eigenvalues --    2.82609   2.85576   2.86629   2.88738   2.90047
 Alpha virt. eigenvalues --    2.91918   2.92327   2.92752   2.94417   2.95576
 Alpha virt. eigenvalues --    2.97389   2.98843   3.00204   3.02031   3.03760
 Alpha virt. eigenvalues --    3.04410   3.06949   3.07252   3.08057   3.09101
 Alpha virt. eigenvalues --    3.09973   3.13000   3.13255   3.13947   3.14297
 Alpha virt. eigenvalues --    3.15347   3.16643   3.20505   3.26620   3.26970
 Alpha virt. eigenvalues --    3.29293   3.31069   3.35690   3.38148   3.40025
 Alpha virt. eigenvalues --    3.49904   3.52406   3.55477   3.58572   3.63834
 Alpha virt. eigenvalues --    3.76238   3.79585   4.22667   4.43699   4.47309
 Alpha virt. eigenvalues --    4.50036   4.51556   4.51901   4.55168   4.55810
 Alpha virt. eigenvalues --    4.57313   4.58552   4.58900   4.60787   4.62329
 Alpha virt. eigenvalues --    4.64579   4.71458   4.72203   4.74108   4.76099
 Alpha virt. eigenvalues --    4.80240   4.81363   4.82968   4.88063   4.91977
 Alpha virt. eigenvalues --    4.95866   5.07584   5.09916   5.14579   5.22490
          Condensed to atoms (all electrons):
 Mulliken atomic charges:
              1
     1  C   -0.483394
     2  C    0.070491
     3  C   -0.368329
     4  C    0.095883
     5  N   -0.881219
     6  C    0.387229
     7  C   -0.278093
     8  C   -0.177536
     9  C   -0.239588
    10  C   -0.177217
    11  C   -0.278795
    12  C   -0.033974
    13  C   -0.236209
    14  C    0.038964
    15  C   -0.224240
    16  C   -0.210371
    17  C    0.298968
    18  N   -0.790661
    19  C    0.750611
    20  C   -0.577625
    21  O   -0.625158
    22  C   -0.246986
    23  C    0.306989
    24  C   -0.529080
    25  N   -0.199645
    26  O   -0.511632
    27  C    0.474648
    28  C   -0.548470
    29  H    0.212199
    30  H    0.195081
    31  H    0.206794
    32  H    0.159049
    33  H    0.158803
    34  H    0.196267
    35  H    0.171479
    36  H    0.382239
    37  H    0.207215
    38  H    0.207118
    39  H    0.197518
    40  H    0.207501
    41  H    0.195589
    42  H    0.245412
    43  H    0.215161
    44  H    0.219707
    45  H    0.188345
    46  H    0.218235
    47  H    0.191141
    48  H    0.189715
    49  H    0.207900
    50  H    0.206647
    51  H    0.215462
    52  H    0.201950
    53  H    0.197914
 Sum of Mulliken charges=   0.00000
 Atomic charges with hydrogens summed into heavy atoms:
              1
     1  C    0.041251
     2  C    0.282689
     3  C   -0.000583
     4  C    0.290964
     5  N   -0.498980
     6  C    0.387229
     7  C   -0.070878
     8  C    0.029583
     9  C   -0.042070
    10  C    0.030283
    11  C   -0.083206
    12  C   -0.033974
    13  C    0.009203
    14  C    0.038964
    15  C   -0.009079
    16  C    0.009335
    17  C    0.298968
    18  N   -0.790661
    19  C    0.750611
    20  C    0.020096
    21  O   -0.625158
    22  C   -0.246986
    23  C    0.306989
    24  C    0.075183
    25  N   -0.199645
    26  O   -0.511632
    27  C    0.474648
    28  C    0.066855
    29  H    0.000000
    30  H    0.000000
    31  H    0.000000
    32  H    0.000000
    33  H    0.000000
    34  H    0.000000
    35  H    0.000000
    36  H    0.000000
    37  H    0.000000
    38  H    0.000000
    39  H    0.000000
    40  H    0.000000
    41  H    0.000000
    42  H    0.000000
    43  H    0.000000
    44  H    0.000000
    45  H    0.000000
    46  H    0.000000
    47  H    0.000000
    48  H    0.000000
    49  H    0.000000
    50  H    0.000000
    51  H    0.000000
    52  H    0.000000
    53  H    0.000000
 Sum of Mulliken charges=   0.00000
 Entering OneElI...
 OneElI was handed  5950634 working-precision words.
 Multipole integrals L=0 to 4 MinM= 0 MaxM= 0.
 Requested accuracy = 0.1000D-12
 PrsmSu:  NPrtUS=   1 ThrOK=F
 PRISM was handed     5165883 working-precision words and  9316 shell-pairs
 Electronic moments (au):
  -200.00000000     0.19850248     0.03104236    -0.66385586
 -6164.34269463 -4189.12962672 -1031.85778867    -9.02973442
    -4.70003969    -1.87165255 -7557.24696276 -4025.22530581
  -474.33538370 13249.05090827  5960.28546283 -1494.35872747
 -2614.54798624  -534.47034341  1001.28438640  3192.21093954
******************************-16123.55952646-15305.98922095
 -4472.87977155 11781.69619734-15115.06449860  -989.85661532
  1047.07566973-96418.64257715-39640.16552819-20086.35308151
  1032.02136823 -6389.06238092  6307.98591490
 Electronic spatial extent (au):  <R**2>= 11385.3301
 Nuclear    moments (au):
   200.00000000     0.00000000     0.00000000     0.00000000
  6004.15103858  4073.37440783   916.72751589     0.00000000
     0.00000000     0.00000000  7499.58105429  3879.46600326
   474.48342401-13243.74349236 -5827.27397818  1431.96495509
  2615.25511155   554.03632938 -1027.99781889 -3218.96367013
332938.56071691182204.19669952 12650.63835860 14425.39057599
  3710.23743383-11884.31262068 15086.52990447  1109.13514743
 -1092.13197738 90326.00257538 35495.13241411 17148.49232319
 -1017.05265234  6585.35533925 -6340.77187037
 Total      moments (au):
     0.00000000     0.19850248     0.03104236    -0.66385586
  -160.19165605  -115.75521889  -115.13027278    -9.02973442
    -4.70003969    -1.87165255   -57.66590848  -145.75930255
     0.14804031     5.30741592   133.01148465   -62.39377239
     0.70712531    19.56598597   -26.71343249   -26.75273059
-27209.97978261-15087.81215379 -3472.92116786  -880.59864496
  -762.64233772  -102.61642334   -28.53459413   119.27853211
   -45.05630765 -6092.64000178 -4145.03311408 -2937.86075832
    14.96871589   196.29295833   -32.78595547
 Charge=     0.0000 electrons
 Dipole moment (field-independent basis, Debye):
    X=     0.5045    Y=     0.0789    Z=    -1.6874  Tot=     1.7629
 Quadrupole moment (field-independent basis, Debye-Ang):
   XX=  -215.4632   YY=  -155.6947   ZZ=  -154.8541
   XY=   -12.1453   XZ=    -6.3217   YZ=    -2.5174
 Traceless Quadrupole moment (field-independent basis, Debye-Ang):
   XX=   -40.1259   YY=    19.6427   ZZ=    20.4832
   XY=   -12.1453   XZ=    -6.3217   YZ=    -2.5174
 Octapole moment (field-independent basis, Debye-Ang**2):
  XXX=   -41.0444  YYY=  -103.7458  ZZZ=     0.1054  XYY=     3.7776
  XXY=    94.6724  XXZ=   -44.4095  XZZ=     0.5033  YZZ=    13.9263
  YYZ=   -19.0136  XYZ=   -19.0416
 Hexadecapole moment (field-independent basis, Debye-Ang**3):
 XXXX=-10248.5823 YYYY= -5682.7931 ZZZZ= -1308.0685 XXXY=  -331.6756
 XXXZ=  -287.2477 YYYX=   -38.6503 YYYZ=   -10.7475 ZZZX=    44.9260
 ZZZY=   -16.9704 XXYY= -2294.7802 XXZZ= -1561.2181 YYZZ= -1106.5391
 XXYZ=     5.6379 YYXZ=    73.9333 ZZXY=   -12.3488
 N-N= 2.588491183168D+03 E-N=-7.973343796397D+03  KE= 1.195527840566D+03
 Entering OneElI...
 OneElI was handed  5507039 working-precision words.
 Calculate electrostatic properties
    NBasis =   470  MinDer = 0  MaxDer = 0
    NGrid  =    53  NMatD  =   1
 Requested accuracy = 0.1000D-12
 PrsmSu:  NPrtUS=   1 ThrOK=F
 PRISM was handed     4797787 working-precision words and  8156 shell-pairs
 --------------------------------------------------------
       Center         ----      EFG at Nuclei      ----
                      3XX-RR        3YY-RR        3ZZ-RR
 --------------------------------------------------------
     1   Atom        0.025653     -0.006537     -0.019116
     2   Atom        0.099192     -0.042979     -0.056214
     3   Atom       -0.026759      0.038625     -0.011866
     4   Atom       -0.054411     -0.036926      0.091337
     5   Atom        0.063708      0.550526     -0.614235
     6   Atom       -0.054128     -0.190766      0.244894
     7   Atom        0.028004     -0.090638      0.062634
     8   Atom        0.050830     -0.208240      0.157411
     9   Atom        0.014884     -0.141805      0.126921
    10   Atom        0.019836     -0.228197      0.208361
    11   Atom        0.030098     -0.097498      0.067400
    12   Atom        0.163259      0.086870     -0.250128
    13   Atom        0.147179      0.141207     -0.288386
    14   Atom        0.103481      0.168988     -0.272469
    15   Atom        0.171295      0.110578     -0.281873
    16   Atom        0.172974      0.085740     -0.258714
    17   Atom       -0.087559      0.227018     -0.139459
    18   Atom       -0.415740      0.483928     -0.068188
    19   Atom        0.276152     -0.368283      0.092131
    20   Atom        0.063190      0.008264     -0.071454
    21   Atom       -0.984299     -0.477556      1.461855
    22   Atom        0.030615      0.019610     -0.050225
    23   Atom        0.157070      0.122212     -0.279282
    24   Atom        0.065461     -0.074644      0.009183
    25   Atom        1.096187     -0.978147     -0.118039
    26   Atom       -0.491951     -0.331666      0.823617
    27   Atom       -0.125526      0.284961     -0.159435
    28   Atom        0.050246     -0.060257      0.010011
    29   Atom        0.000337     -0.053271      0.052934
    30   Atom        0.093222      0.066784     -0.160006
    31   Atom       -0.136583      0.056854      0.079729
    32   Atom        0.011158     -0.064788      0.053630
    33   Atom        0.106046     -0.041382     -0.064664
    34   Atom        0.085076     -0.203141      0.118065
    35   Atom        0.099846      0.060026     -0.159872
    36   Atom        0.179587      0.206891     -0.386478
    37   Atom       -0.069417      0.054293      0.015124
    38   Atom        0.153923      0.160422     -0.314344
    39   Atom       -0.114928      0.083449      0.031479
    40   Atom       -0.080200      0.049303      0.030898
    41   Atom        0.152595      0.165695     -0.318290
    42   Atom       -0.076662     -0.056171      0.132833
    43   Atom        0.115386     -0.265192      0.149806
    44   Atom       -0.066979     -0.082300      0.149279
    45   Atom       -0.227432      0.104222      0.123210
    46   Atom       -0.008494      0.128513     -0.120018
    47   Atom        0.160421     -0.302917      0.142496
    48   Atom       -0.136202      0.139504     -0.003303
    49   Atom        0.156045     -0.087660     -0.068385
    50   Atom       -0.149262      0.140306      0.008956
    51   Atom       -0.057140      0.062257     -0.005118
    52   Atom       -0.139224      0.124458      0.014766
    53   Atom        0.122382     -0.050564     -0.071818
 --------------------------------------------------------
                        XY            XZ            YZ
 --------------------------------------------------------
     1   Atom        0.001842      0.046691     -0.037543
     2   Atom       -0.052219      0.116219      0.246565
     3   Atom        0.029457      0.012169      0.021502
     4   Atom        0.122367     -0.082992      0.110742
     5   Atom        0.947454      0.102706      0.125255
     6   Atom       -0.199605      0.105204     -0.121009
     7   Atom       -0.136654     -0.031168     -0.010657
     8   Atom       -0.266273     -0.016169     -0.045259
     9   Atom       -0.157819     -0.003606     -0.035277
    10   Atom       -0.245172     -0.042799     -0.033192
    11   Atom       -0.138991     -0.034449     -0.004326
    12   Atom        0.027951      0.069077     -0.136175
    13   Atom        0.007211      0.055586     -0.115629
    14   Atom       -0.010219      0.044164     -0.117765
    15   Atom       -0.001241      0.035838     -0.101917
    16   Atom        0.022923      0.026010     -0.112264
    17   Atom       -0.083667      0.054078     -0.126539
    18   Atom       -0.382006     -0.244903      0.642572
    19   Atom        0.184544     -0.032214     -0.301716
    20   Atom        0.006354      0.048080      0.040961
    21   Atom       -0.053528      0.123408     -0.850664
    22   Atom        0.011510     -0.000833      0.047201
    23   Atom       -0.003671     -0.049664      0.243301
    24   Atom        0.015863     -0.002558     -0.068539
    25   Atom        0.110374     -0.047018     -0.502451
    26   Atom        0.976366      0.582438     -0.773129
    27   Atom        0.061022      0.014586      0.257858
    28   Atom        0.050547      0.027792     -0.051347
    29   Atom       -0.174963     -0.107490     -0.122242
    30   Atom       -0.056773     -0.126582     -0.157179
    31   Atom        0.165360     -0.137776      0.079381
    32   Atom       -0.174339     -0.114199     -0.151791
    33   Atom       -0.094861      0.109126      0.202079
    34   Atom       -0.142743      0.044366      0.111973
    35   Atom       -0.058619     -0.116400     -0.170133
    36   Atom        0.045827     -0.020675      0.030243
    37   Atom        0.174883     -0.165935      0.122622
    38   Atom        0.007010      0.022072      0.036220
    39   Atom        0.161609      0.176710     -0.095126
    40   Atom        0.172065     -0.166129      0.117582
    41   Atom        0.014981      0.018688      0.036794
    42   Atom        0.211453     -0.092471      0.093351
    43   Atom       -0.113862      0.020702      0.096671
    44   Atom        0.220516     -0.072973      0.073899
    45   Atom        0.138965      0.093669     -0.027431
    46   Atom       -0.063364     -0.207484     -0.075457
    47   Atom       -0.015332      0.000644     -0.040652
    48   Atom       -0.044352     -0.214257     -0.041665
    49   Atom        0.000092      0.004792      0.222391
    50   Atom        0.043137      0.211507     -0.035108
    51   Atom       -0.128775     -0.181687     -0.120996
    52   Atom       -0.076966      0.204805      0.049893
    53   Atom        0.086495     -0.087051      0.207132
 --------------------------------------------------------


 ---------------------------------------------------------------------------------
              Nuclear Quadrupole in Principal Axis System
 ---------------------------------------------------------------------------------

       Atom             a.u.   MegaHertz   Gauss  10(-4) cm-1        Axes

              Baa    -0.0671    -9.002    -3.212    -3.003 -0.3993  0.4919  0.7737
     1 C(13)  Bbb     0.0061     0.824     0.294     0.275  0.5210  0.8161 -0.2500
              Bcc     0.0609     8.178     2.918     2.728  0.7544 -0.3033  0.5822
 
              Baa    -0.3299   -44.273   -15.798   -14.768 -0.2707 -0.6553  0.7052
     2 C(13)  Bbb     0.1119    15.018     5.359     5.009  0.8610 -0.4925 -0.1270
              Bcc     0.2180    29.255    10.439     9.758  0.4305  0.5728  0.6975
 
              Baa    -0.0387    -5.198    -1.855    -1.734  0.9350 -0.3065 -0.1782
     3 C(13)  Bbb    -0.0197    -2.645    -0.944    -0.882  0.0555 -0.3699  0.9274
              Bcc     0.0584     7.843     2.799     2.616  0.3502  0.8771  0.3288
 
              Baa    -0.2270   -30.460   -10.869   -10.160  0.6502 -0.6489  0.3952
     4 C(13)  Bbb     0.0709     9.513     3.394     3.173  0.7550  0.6102 -0.2402
              Bcc     0.1561    20.947     7.475     6.987 -0.0853  0.4546  0.8866
 
              Baa    -0.6715   -25.900    -9.242    -8.639  0.7913 -0.6033 -0.0996
     5 N(14)  Bbb    -0.6275   -24.201    -8.636    -8.073  0.0275 -0.1276  0.9914
              Bcc     1.2990    50.101    17.877    16.712  0.6108  0.7873  0.0843
 
              Baa    -0.3361   -45.098   -16.092   -15.043  0.5586  0.8264  0.0710
     6 C(13)  Bbb    -0.0066    -0.883    -0.315    -0.295  0.7279 -0.4473 -0.5197
              Bcc     0.3427    45.981    16.407    15.338  0.3978 -0.3420  0.8514
 
              Baa    -0.1831   -24.565    -8.765    -8.194  0.5514  0.8275  0.1058
     7 C(13)  Bbb     0.0586     7.857     2.804     2.621  0.2129 -0.2623  0.9412
              Bcc     0.1245    16.708     5.962     5.573  0.8066 -0.4964 -0.3208
 
              Baa    -0.3789   -50.848   -18.144   -16.961  0.5271  0.8453  0.0872
     8 C(13)  Bbb     0.1597    21.430     7.647     7.148 -0.1940  0.0198  0.9808
              Bcc     0.2192    29.418    10.497     9.813  0.8274 -0.5339  0.1744
 
              Baa    -0.2424   -32.529   -11.607   -10.851  0.5218  0.8487  0.0862
     9 C(13)  Bbb     0.1036    13.899     4.959     4.636  0.7560 -0.4132 -0.5076
              Bcc     0.1388    18.631     6.648     6.215  0.3952 -0.3300  0.8572
 
              Baa    -0.3833   -51.433   -18.352   -17.156  0.5243  0.8472  0.0855
    10 C(13)  Bbb     0.1633    21.909     7.818     7.308  0.7776 -0.5173  0.3573
              Bcc     0.2200    29.523    10.535     9.848 -0.3469  0.1209  0.9301
 
              Baa    -0.1886   -25.306    -9.030    -8.441  0.5441  0.8344  0.0873
    11 C(13)  Bbb     0.0578     7.762     2.770     2.589  0.2893 -0.2843  0.9141
              Bcc     0.1307    17.544     6.260     5.852  0.7876 -0.4721 -0.3961
 
              Baa    -0.3100   -41.597   -14.843   -13.875 -0.1554  0.3304  0.9310
    12 C(13)  Bbb     0.1347    18.082     6.452     6.032 -0.0802  0.9351 -0.3452
              Bcc     0.1752    23.515     8.391     7.844  0.9846  0.1283  0.1188
 
              Baa    -0.3241   -43.492   -15.519   -14.507 -0.1173  0.2412  0.9634
    13 C(13)  Bbb     0.1515    20.327     7.253     6.780  0.9382  0.3451  0.0278
              Bcc     0.1726    23.165     8.266     7.727 -0.3257  0.9071 -0.2668
 
              Baa    -0.3059   -41.050   -14.648   -13.693 -0.0983  0.2375  0.9664
    14 C(13)  Bbb     0.1030    13.827     4.934     4.612  0.9728  0.2276  0.0430
              Bcc     0.2029    27.222     9.714     9.080 -0.2097  0.9443 -0.2534
 
              Baa    -0.3092   -41.497   -14.807   -13.842 -0.0717  0.2351  0.9693
    15 C(13)  Bbb     0.1332    17.869     6.376     5.960  0.2312  0.9493 -0.2131
              Bcc     0.1761    23.629     8.431     7.882  0.9703 -0.2088  0.1224
 
              Baa    -0.2942   -39.478   -14.087   -13.168 -0.0673  0.2865  0.9557
    16 C(13)  Bbb     0.1156    15.506     5.533     5.172 -0.2364  0.9260 -0.2942
              Bcc     0.1786    23.972     8.554     7.996  0.9693  0.2457 -0.0054
 
              Baa    -0.1878   -25.206    -8.994    -8.408 -0.3162  0.2179  0.9233
    17 C(13)  Bbb    -0.1031   -13.830    -4.935    -4.613  0.9161  0.3232  0.2374
              Bcc     0.2909    39.036    13.929    13.021 -0.2467  0.9209 -0.3018
 
              Baa    -0.5568   -21.476    -7.663    -7.164  0.9520  0.2915  0.0937
    18 N(14)  Bbb    -0.4910   -18.939    -6.758    -6.317  0.0781 -0.5271  0.8462
              Bcc     1.0479    40.415    14.421    13.481 -0.2961  0.7982  0.5245
 
              Baa    -0.5459   -73.255   -26.139   -24.435 -0.1841  0.8921  0.4126
    19 C(13)  Bbb     0.1598    21.439     7.650     7.151  0.5885 -0.2362  0.7733
              Bcc     0.3861    51.816    18.489    17.284  0.7873  0.3852 -0.4815
 
              Baa    -0.0998   -13.393    -4.779    -4.467 -0.2553 -0.3295  0.9090
    20 C(13)  Bbb     0.0161     2.161     0.771     0.721 -0.3557  0.9062  0.2286
              Bcc     0.0837    11.232     4.008     3.747  0.8991  0.2650  0.3486
 
              Baa    -0.9910    71.711    25.588    23.920  0.9982  0.0490 -0.0332
    21 O(17)  Bbb    -0.7976    57.712    20.593    19.251 -0.0341  0.9347  0.3538
              Bcc     1.7886  -129.422   -46.181   -43.171  0.0484 -0.3520  0.9347
 
              Baa    -0.0744    -9.978    -3.560    -3.328  0.0568 -0.4537  0.8893
    22 C(13)  Bbb     0.0255     3.421     1.221     1.141  0.8740 -0.4080 -0.2640
              Bcc     0.0489     6.557     2.340     2.187  0.4827  0.7923  0.3733
 
              Baa    -0.3974   -53.322   -19.027   -17.786  0.0781 -0.4223  0.9031
    23 C(13)  Bbb     0.1533    20.575     7.342     6.863  0.9569  0.2860  0.0510
              Bcc     0.2440    32.747    11.685    10.923 -0.2798  0.8601  0.4265
 
              Baa    -0.1140   -15.292    -5.456    -5.101 -0.0702  0.8722  0.4840
    24 C(13)  Bbb     0.0433     5.811     2.073     1.938  0.3957 -0.4211  0.8162
              Bcc     0.0707     9.481     3.383     3.163  0.9157  0.2488 -0.3156
 
              Baa    -1.2123   -46.755   -16.683   -15.596 -0.0350  0.9088  0.4158
    25 N(14)  Bbb     0.1053     4.063     1.450     1.355  0.0889 -0.4116  0.9070
              Bcc     1.1069    42.692    15.234    14.241  0.9954  0.0687 -0.0664
 
              Baa    -1.7461   126.347    45.084    42.145  0.6712 -0.6540 -0.3489
    26 O(17)  Bbb     0.5284   -38.235   -13.643   -12.754  0.7370  0.6391  0.2197
              Bcc     1.2177   -88.112   -31.440   -29.391  0.0793 -0.4046  0.9110
 
              Baa    -0.2786   -37.389   -13.341   -12.472  0.0822 -0.4220  0.9029
    27 C(13)  Bbb    -0.1316   -17.659    -6.301    -5.890  0.9901 -0.0692 -0.1225
              Bcc     0.4102    55.048    19.642    18.362  0.1142  0.9040  0.4121
 
              Baa    -0.1083   -14.535    -5.187    -4.848 -0.3418  0.8301  0.4405
    28 C(13)  Bbb     0.0371     4.974     1.775     1.659 -0.0251 -0.4766  0.8787
              Bcc     0.0713     9.561     3.412     3.189  0.9394  0.2893  0.1837
 
              Baa    -0.2825  -150.710   -53.777   -50.271  0.5875  0.6813  0.4366
    29 H(1)   Bbb     0.1318    70.303    25.086    23.451 -0.2132 -0.3901  0.8957
              Bcc     0.1507    80.407    28.691    26.821  0.7806 -0.6193 -0.0839
 
              Baa    -0.2905  -154.980   -55.301   -51.696  0.3397  0.4235  0.8398
    30 H(1)   Bbb     0.1383    73.767    26.322    24.606  0.7525 -0.6581  0.0274
              Bcc     0.1522    81.214    28.979    27.090  0.5643  0.6226 -0.5422
 
              Baa    -0.2983  -159.166   -56.794   -53.092  0.7995 -0.4589  0.3877
    31 H(1)   Bbb     0.1466    78.215    27.909    26.090 -0.3633  0.1447  0.9204
              Bcc     0.1517    80.950    28.885    27.002  0.4784  0.8766  0.0510
 
              Baa    -0.3056  -163.053   -58.181   -54.389  0.5496  0.6925  0.4673
    32 H(1)   Bbb     0.1471    78.491    28.007    26.182  0.7921 -0.2542 -0.5549
              Bcc     0.1585    84.562    30.174    28.207  0.2655 -0.6752  0.6882
 
              Baa    -0.3061  -163.315   -58.275   -54.476 -0.3309 -0.6447  0.6892
    33 H(1)   Bbb     0.1464    78.093    27.865    26.049 -0.4485  0.7499  0.4862
              Bcc     0.1597    85.223    30.410    28.427  0.8303  0.1482  0.5373
 
              Baa    -0.2968  -158.373   -56.512   -52.828  0.3645  0.8885 -0.2788
    34 H(1)   Bbb     0.1436    76.598    27.332    25.550  0.9303 -0.3341  0.1514
              Bcc     0.1533    81.775    29.179    27.277 -0.0413  0.3145  0.9484
 
              Baa    -0.2954  -157.624   -56.244   -52.578  0.3130  0.4515  0.8355
    35 H(1)   Bbb     0.1414    75.434    26.917    25.162  0.8957 -0.4329 -0.1016
              Bcc     0.1540    82.190    29.327    27.415  0.3158  0.7802 -0.5400
 
              Baa    -0.3889  -207.525   -74.050   -69.223  0.0406 -0.0538  0.9977
    36 H(1)   Bbb     0.1477    78.786    28.113    26.280  0.8049 -0.5898 -0.0646
              Bcc     0.2413   128.739    45.937    42.943  0.5920  0.8057  0.0193
 
              Baa    -0.3200  -170.756   -60.930   -56.958  0.6927 -0.4953  0.5242
    37 H(1)   Bbb     0.1417    75.611    26.980    25.221 -0.4846  0.2186  0.8470
              Bcc     0.1783    95.145    33.950    31.737  0.5341  0.8407  0.0886
 
              Baa    -0.3181  -169.707   -60.556   -56.608 -0.0455 -0.0747  0.9962
    38 H(1)   Bbb     0.1494    79.738    28.452    26.598  0.8450 -0.5347 -0.0015
              Bcc     0.1686    89.969    32.103    30.010  0.5328  0.8417  0.0875
 
              Baa    -0.3199  -170.706   -60.912   -56.942  0.7594 -0.4212 -0.4959
    39 H(1)   Bbb     0.1458    77.775    27.752    25.943  0.3816 -0.3289  0.8638
              Bcc     0.1742    92.931    33.160    30.998  0.5269  0.8452  0.0891
 
              Baa    -0.3180  -169.675   -60.544   -56.597  0.7090 -0.4934  0.5039
    40 H(1)   Bbb     0.1494    79.730    28.450    26.595 -0.4676  0.2059  0.8596
              Bcc     0.1686    89.945    32.095    30.002  0.5279  0.8451  0.0847
 
              Baa    -0.3217  -171.654   -61.250   -57.257 -0.0369 -0.0741  0.9966
    41 H(1)   Bbb     0.1428    76.210    27.193    25.421  0.8428 -0.5382 -0.0088
              Bcc     0.1789    95.444    34.057    31.837  0.5370  0.8396  0.0823
 
              Baa    -0.3165  -168.876   -60.259   -56.331  0.6933 -0.6637  0.2806
    42 H(1)   Bbb     0.1448    77.249    27.565    25.768  0.7127  0.6892 -0.1306
              Bcc     0.1717    91.626    32.695    30.563 -0.1067  0.2905  0.9509
 
              Baa    -0.3175  -169.404   -60.448   -56.507  0.2581  0.9438 -0.2067
    43 H(1)   Bbb     0.1456    77.670    27.715    25.908  0.9529 -0.2135  0.2152
              Bcc     0.1719    91.734    32.733    30.599 -0.1590  0.2525  0.9544
 
              Baa    -0.3184  -169.857   -60.609   -56.658 -0.6786  0.7018 -0.2168
    44 H(1)   Bbb     0.1460    77.878    27.789    25.977  0.7119  0.7011  0.0413
              Bcc     0.1724    91.979    32.820    30.681 -0.1810  0.1263  0.9753
 
              Baa    -0.3004  -160.260   -57.185   -53.457  0.9169 -0.3301 -0.2242
    45 H(1)   Bbb     0.1426    76.075    27.146    25.376  0.0373 -0.4884  0.8718
              Bcc     0.1578    84.185    30.039    28.081  0.3973  0.8078  0.4355
 
              Baa    -0.3016  -160.936   -57.426   -53.683  0.5948  0.2231  0.7723
    46 H(1)   Bbb     0.1465    78.191    27.901    26.082  0.4813  0.6707 -0.5644
              Bcc     0.1551    82.745    29.526    27.601 -0.6439  0.7074  0.2916
 
              Baa    -0.3071  -163.850   -58.466   -54.654  0.0325  0.9954  0.0900
    47 H(1)   Bbb     0.1459    77.847    27.778    25.967 -0.1334 -0.0849  0.9874
              Bcc     0.1612    86.003    30.688    28.687  0.9905 -0.0441  0.1301
 
              Baa    -0.3023  -161.315   -57.561   -53.809  0.7964  0.1355  0.5895
    48 H(1)   Bbb     0.1432    76.425    27.270    25.493 -0.4101  0.8373  0.3615
              Bcc     0.1591    84.890    30.291    28.316 -0.4446 -0.5296  0.7224
 
              Baa    -0.3006  -160.410   -57.238   -53.507  0.0071  0.7222 -0.6917
    49 H(1)   Bbb     0.1436    76.609    27.336    25.554 -0.2717  0.6671  0.6937
              Bcc     0.1571    83.801    29.902    27.953  0.9624  0.1830  0.2009
 
              Baa    -0.3029  -161.618   -57.669   -53.910  0.8147 -0.1242 -0.5665
    50 H(1)   Bbb     0.1455    77.625    27.699    25.893  0.3133  0.9162  0.2497
              Bcc     0.1574    83.993    29.971    28.017  0.4880 -0.3809  0.7853
 
              Baa    -0.3006  -160.388   -57.230   -53.500  0.6749  0.4376  0.5942
    51 H(1)   Bbb     0.1436    76.621    27.340    25.558 -0.6537  0.7282  0.2061
              Bcc     0.1570    83.766    29.890    27.941 -0.3425 -0.5275  0.7775
 
              Baa    -0.3008  -160.490   -57.267   -53.534  0.8044  0.2108 -0.5554
    52 H(1)   Bbb     0.1436    76.643    27.348    25.565 -0.0521  0.9564  0.2875
              Bcc     0.1571    83.847    29.919    27.968  0.5918 -0.2023  0.7803
 
              Baa    -0.3039  -162.150   -57.859   -54.087  0.2766 -0.6631  0.6955
    53 H(1)   Bbb     0.1456    77.704    27.727    25.919 -0.2055  0.6662  0.7169
              Bcc     0.1583    84.446    30.132    28.168  0.9388  0.3412 -0.0480
 

 ---------------------------------------------------------------------------------

 No NMR shielding tensors so no spin-rotation constants.
 Leave Link  601 at Wed Sep 23 16:22:37 2015, MaxMem=    6291456 cpu:       1.1
 Merz-Kollman atomic radii used.
 Atom Element Radius
    1     6    1.50
    2     6    1.50
    3     6    1.50
    4     6    1.50
    5     7    1.50
    6     6    1.50
    7     6    1.50
    8     6    1.50
    9     6    1.50
   10     6    1.50
   11     6    1.50
   12     6    1.50
   13     6    1.50
   14     6    1.50
   15     6    1.50
   16     6    1.50
   17     6    1.50
   18     7    1.50
   19     6    1.50
   20     6    1.50
   21     8    1.40
   22     6    1.50
   23     6    1.50
   24     6    1.50
   25     7    1.50
   26     8    1.40
   27     6    1.50
   28     6    1.50
   29     1    1.20
   30     1    1.20
   31     1    1.20
   32     1    1.20
   33     1    1.20
   34     1    1.20
   35     1    1.20
   36     1    1.20
   37     1    1.20
   38     1    1.20
   39     1    1.20
   40     1    1.20
   41     1    1.20
   42     1    1.20
   43     1    1.20
   44     1    1.20
   45     1    1.20
   46     1    1.20
   47     1    1.20
   48     1    1.20
   49     1    1.20
   50     1    1.20
   51     1    1.20
   52     1    1.20
   53     1    1.20
 Generate VDW surfaces: Layer= 4 Dens= 6 Start= 1.400 Inc= 0.200

 **********************************************************************

            Electrostatic Properties Using The SCF Density

 **********************************************************************

       Atomic Center    1 is at   4.542226 -0.252098 -1.964122
       Atomic Center    2 is at   3.713013  0.476564 -0.888447
       Atomic Center    3 is at   2.573116  1.307200 -1.536741
       Atomic Center    4 is at   1.368959  1.480752 -0.604577
       Atomic Center    5 is at   0.376294  2.378497 -1.192495
       Atomic Center    6 is at  -0.654149  2.967440 -0.440726
       Atomic Center    7 is at  -0.730733  2.874496  0.969262
       Atomic Center    8 is at  -1.799457  3.469939  1.666788
       Atomic Center    9 is at  -2.801732  4.166048  0.964892
       Atomic Center   10 is at  -2.731707  4.264598 -0.437123
       Atomic Center   11 is at  -1.662983  3.669156 -1.134648
       Atomic Center   12 is at   0.887141  0.078821 -0.239865
       Atomic Center   13 is at  -0.471868 -0.304228 -0.305506
       Atomic Center   14 is at  -0.882787 -1.618309 -0.000306
       Atomic Center   15 is at   0.107056 -2.566197  0.335456
       Atomic Center   16 is at   1.465841 -2.206419  0.383535
       Atomic Center   17 is at   1.865565 -0.874239  0.126012
       Atomic Center   18 is at   3.244118 -0.470749  0.158741
       Atomic Center   19 is at   4.078717 -0.757087  1.201080
       Atomic Center   20 is at   3.536761 -1.400710  2.481116
[...]
 **** Fit       0.003690
 **** Fit       0.004327
 **** Fit       0.005223
 **** Fit       0.006070
 **** Fit       0.006667
 **** Fit       0.006939
 **** Fit       0.006883
 **** Fit       0.006495
 **** Fit       0.005782
 **** Fit       0.004868
 **** Fit       0.004029
 **** Fit       0.002078
 **** Fit       0.002082
 **** Fit       0.002550
 **** Fit       0.003378
 **** Fit       0.004388
 **** Fit       0.005396
 **** Fit       0.006268
 **** Fit       0.006934
 **** Fit       0.006336
 **** Fit       0.005424
 **** Fit       0.004375
 **** Fit       0.003354
 **** Fit       0.002536
 **** Fit       0.000117
 **** Fit       0.000029
 **** Fit       0.000419
 **** Fit       0.001228
 **** Fit       0.002329
 **** Fit       0.003563
 **** Fit       0.004781
 **** Fit       0.005872
 **** Fit       0.006779
 **** Fit       0.005290
 **** Fit       0.004017
 **** Fit       0.002735
 **** Fit       0.001574
 **** Fit       0.000661
 **** Fit      -0.002455
 **** Fit      -0.002655
 **** Fit      -0.002312
 **** Fit      -0.001462
 **** Fit      -0.000216
 **** Fit       0.001271
 **** Fit       0.002836
 **** Fit       0.004338
 **** Fit       0.005682
 **** Fit       0.006823
 **** Fit       0.003980
 **** Fit       0.002338
 **** Fit       0.000763
 **** Fit      -0.000638
 **** Fit      -0.001751
 **** Fit      -0.005848
 **** Fit      -0.006207
 **** Fit      -0.005939
 **** Fit      -0.005060
 **** Fit      -0.003667
 **** Fit      -0.001912
 **** Fit       0.000027
 **** Fit       0.001987
 **** Fit       0.003834
 **** Fit       0.005484
 **** Fit       0.002114
 **** Fit       0.000080
 **** Fit      -0.001834
 **** Fit      -0.003540
 **** Fit      -0.004921
 **** Fit      -0.010380
 **** Fit      -0.010983
 **** Fit      -0.010750
 **** Fit      -0.009685
 **** Fit      -0.007903
 **** Fit      -0.005602
 **** Fit      -0.003016
 **** Fit      -0.000369
 **** Fit       0.002159
 **** Fit       0.004443
 **** Fit      -0.002318
 **** Fit      -0.004845
 **** Fit      -0.007136
 **** Fit      -0.009042
 **** Fit      -0.016568
 **** Fit      -0.017561
 **** Fit      -0.017423
 **** Fit      -0.016135
 **** Fit      -0.013837
 **** Fit      -0.010795
 **** Fit      -0.007324
 **** Fit      -0.003734
 **** Fit      -0.000274
 **** Fit       0.002880
 **** Fit      -0.008846
 **** Fit      -0.011952
 **** Fit      -0.014614
 **** Fit      -0.007655
 **** Fit      -0.002803
 **** Fit       0.009712
 **** Fit       0.009290
 **** Fit       0.008497
 **** Fit       0.007403
 **** Fit       0.010562
 **** Fit       0.010649
 **** Fit       0.010439
 **** Fit       0.009869
 **** Fit       0.008942
 **** Fit       0.007704
 **** Fit       0.006256
 **** Fit       0.011227
 **** Fit       0.011593
 **** Fit       0.011677
 **** Fit       0.011399
 **** Fit       0.010750
 **** Fit       0.009748
 **** Fit       0.008422
 **** Fit       0.006814
 **** Fit       0.004997
 **** Fit       0.011802
 **** Fit       0.012500
 **** Fit       0.012883
 **** Fit       0.012875
 **** Fit       0.012481
 **** Fit       0.011733
 **** Fit       0.010658
 **** Fit       0.009277
 **** Fit       0.007601
 **** Fit       0.005646
 **** Fit       0.003443
 **** Fit       0.012470
 **** Fit       0.013632
 **** Fit       0.014292
 **** Fit       0.014415
 **** Fit       0.014067
 **** Fit       0.013326
 **** Fit       0.012248
 **** Fit       0.010863
 **** Fit       0.009174
 **** Fit       0.007167
 **** Fit       0.004820
 **** Fit       0.002108
 **** Fit       0.016086
 **** Fit       0.016325
 **** Fit       0.015964
 **** Fit       0.015165
 **** Fit       0.014032
 **** Fit       0.012616
 **** Fit       0.010927
 **** Fit       0.008944
 **** Fit       0.006619
 **** Fit       0.003884
 **** Fit       0.000646
 **** Fit       0.018637
 **** Fit       0.017763
 **** Fit       0.016508
 **** Fit       0.014994
 **** Fit       0.013257
 **** Fit       0.011285
 **** Fit       0.009027
 **** Fit       0.006400
 **** Fit       0.003281
 **** Fit      -0.000507
 **** Fit       0.018996
 **** Fit       0.016992
 **** Fit       0.014863
 **** Fit       0.012574
 **** Fit       0.010038
 **** Fit       0.007129
 **** Fit       0.003662
 **** Fit      -0.000644
 **** Fit       0.017511
 **** Fit       0.014727
 **** Fit       0.011846
 **** Fit       0.008671
 **** Fit       0.004950
 **** Fit       0.000303
 **** Fit       0.014148
 **** Fit       0.010684
 **** Fit       0.006817
 **** Fit       0.002101
 **** Fit       0.014633
 **** Fit       0.010480
 **** Fit       0.005332
 **** Fit       0.006272
 **** Fit       0.005904
 **** Fit       0.004977
 **** Fit       0.004301
 **** Fit       0.004614
 **** Fit       0.005666
 **** Fit       0.007090
 **** Fit       0.006924
 **** Fit       0.006345
 **** Fit       0.005516
 **** Fit       0.004629
 **** Fit       0.003821
 **** Fit       0.003226
 **** Fit       0.003127
 **** Fit       0.003730
 **** Fit       0.004824
 **** Fit       0.005951
 **** Fit       0.006758
 **** Fit       0.007759
 **** Fit       0.007661
 **** Fit       0.007275
 **** Fit       0.006662
 **** Fit       0.005900
 **** Fit       0.005088
 **** Fit       0.001906
 **** Fit       0.002655
 **** Fit       0.003807
 **** Fit       0.005057
 **** Fit       0.006160
 **** Fit       0.006998
 **** Fit       0.007537
 **** Fit       0.008247
 **** Fit       0.008185
 **** Fit       0.007886
 **** Fit       0.007387
 **** Fit       0.006730
 **** Fit       0.005966
 **** Fit       0.000990
 **** Fit       0.002202
 **** Fit       0.003611
 **** Fit       0.004963
 **** Fit       0.006100
 **** Fit       0.006977
 **** Fit       0.007621
 **** Fit       0.008051
 **** Fit       0.008489
 **** Fit       0.008473
 **** Fit       0.008231
 **** Fit       0.007798
 **** Fit       0.007204
 **** Fit       0.006480
 **** Fit       0.001342
 **** Fit       0.003003
 **** Fit       0.004513
 **** Fit       0.005733
 **** Fit       0.006642
 **** Fit       0.007315
 **** Fit       0.007850
 **** Fit       0.008264
 **** Fit       0.008352
 **** Fit       0.008420
 **** Fit       0.008264
 **** Fit       0.007908
 **** Fit       0.007365
 **** Fit       0.006671
 **** Fit       0.000395
 **** Fit       0.002314
 **** Fit       0.003970
 **** Fit       0.005243
 **** Fit       0.006108
 **** Fit       0.006666
 **** Fit       0.007109
 **** Fit       0.007580
 **** Fit       0.008044
 **** Fit       0.007569
 **** Fit       0.007791
 **** Fit       0.007764
 **** Fit       0.007478
 **** Fit       0.006893
 **** Fit       0.006067
 **** Fit       0.000382
 **** Fit       0.002516
 **** Fit       0.004154
 **** Fit       0.005197
 **** Fit       0.005660
 **** Fit       0.005786
 **** Fit       0.005962
 **** Fit       0.006431
 **** Fit       0.007069
 **** Fit       0.005695
 **** Fit       0.006186
 **** Fit       0.006431
 **** Fit       0.006329
 **** Fit       0.004107
 **** Fit       0.004903
 **** Fit      -0.005742
 **** Fit      -0.006228
 **** Fit      -0.006870
 **** Fit      -0.008038
 **** Fit      -0.008793
 **** Fit      -0.007401
 **** Fit      -0.007553
 **** Fit      -0.007164
 **** Fit      -0.007292
 **** Fit      -0.006270
 **** Fit      -0.005373
 **** Fit      -0.004644
 **** Fit      -0.001880
 **** Fit       0.001745
 **** Fit       0.001822
 **** Fit       0.000913
 **** Fit       0.000658
 **** Fit       0.002547
 **** Fit       0.001852
 **** Fit       0.001008
 **** Fit       0.000069
 **** Fit      -0.000667
 **** Fit      -0.000749
 **** Fit       0.002382
 **** Fit       0.001783
 **** Fit       0.001050
 **** Fit       0.000140
 **** Fit      -0.000893
 **** Fit      -0.001878
 **** Fit      -0.002539
 **** Fit      -0.002578
 **** Fit       0.002431
 **** Fit       0.001941
 **** Fit       0.001370
 **** Fit       0.000636
 **** Fit      -0.000305
 **** Fit      -0.001442
 **** Fit      -0.002690
 **** Fit      -0.003882
 **** Fit      -0.004769
 **** Fit      -0.005068
 **** Fit       0.002082
 **** Fit       0.001672
 **** Fit       0.001195
 **** Fit       0.000559
 **** Fit      -0.000298
 **** Fit      -0.001408
 **** Fit      -0.002759
 **** Fit      -0.004290
 **** Fit      -0.005862
 **** Fit      -0.007252
 **** Fit      -0.008158
 **** Fit      -0.008267
 **** Fit       0.001133
 **** Fit       0.000770
 **** Fit       0.000248
 **** Fit      -0.000497
 **** Fit      -0.001510
 **** Fit      -0.002816
 **** Fit      -0.004413
 **** Fit      -0.006262
 **** Fit      -0.008261
 **** Fit      -0.010223
 **** Fit      -0.011857
 **** Fit      -0.012790
 **** Fit       0.000346
 **** Fit       0.000172
 **** Fit      -0.000171
 **** Fit      -0.000754
 **** Fit      -0.001630
 **** Fit      -0.002844
 **** Fit      -0.004428
 **** Fit      -0.006402
 **** Fit      -0.008755
 **** Fit      -0.011417
 **** Fit      -0.014218
 **** Fit      -0.000869
 **** Fit      -0.000961
 **** Fit      -0.001325
 **** Fit      -0.002009
 **** Fit      -0.003054
 **** Fit      -0.004507
 **** Fit      -0.006418
 **** Fit      -0.008835
 **** Fit      -0.011794
 **** Fit      -0.015288
 **** Fit      -0.002152
 **** Fit      -0.002361
 **** Fit      -0.002957
 **** Fit      -0.003973
 **** Fit      -0.005457
 **** Fit      -0.007478
 **** Fit      -0.010124
 **** Fit      -0.013503
 **** Fit      -0.017728
 **** Fit      -0.003509
 **** Fit      -0.003879
 **** Fit      -0.004760
 **** Fit      -0.006202
 **** Fit      -0.008288
 **** Fit      -0.011149
 **** Fit      -0.014978
 **** Fit      -0.005122
 **** Fit      -0.006063
 **** Fit      -0.007702
 **** Fit      -0.010168
 **** Fit      -0.013675
 **** Fit      -0.007352
 **** Fit      -0.009222
 **** Fit      -0.012093
 **** Fit      -0.016290
 **** Fit      -0.007233
 **** Fit      -0.004327
 **** Fit      -0.006831
 **** Fit      -0.005716
 **** Fit      -0.004055
 **** Fit      -0.002110
 **** Fit      -0.000072
 **** Fit       0.001953
 **** Fit       0.003920
 **** Fit       0.005594
 **** Fit       0.003685
 **** Fit       0.001699
 **** Fit      -0.000121
 **** Fit      -0.001492
 **** Fit      -0.002206
 **** Fit      -0.002206
 **** Fit      -0.001579
 **** Fit      -0.000491
 **** Fit       0.000875
 **** Fit       0.002374
 **** Fit       0.003908
 **** Fit       0.005423
 **** Fit       0.006893
 **** Fit       0.008857
 **** Fit       0.007544
 **** Fit       0.006074
 **** Fit       0.004557
 **** Fit       0.003154
 **** Fit       0.002050
 **** Fit       0.001395
 **** Fit       0.001251
 **** Fit       0.001584
 **** Fit       0.002295
 **** Fit       0.003260
 **** Fit       0.004365
 **** Fit       0.005527
 **** Fit       0.006693
 **** Fit       0.007826
 **** Fit       0.008898
 **** Fit       0.010396
 **** Fit       0.009468
 **** Fit       0.008349
 **** Fit       0.007119
 **** Fit       0.005910
 **** Fit       0.004881
 **** Fit       0.004179
 **** Fit       0.003895
 **** Fit       0.004031
 **** Fit       0.004520
 **** Fit       0.005259
 **** Fit       0.006143
 **** Fit       0.007091
 **** Fit       0.008044
 **** Fit       0.008960
 **** Fit       0.009810
 **** Fit       0.011691
 **** Fit       0.011245
 **** Fit       0.010659
 **** Fit       0.009894
 **** Fit       0.008966
 **** Fit       0.007967
 **** Fit       0.007038
 **** Fit       0.006330
 **** Fit       0.005956
 **** Fit       0.005952
 **** Fit       0.006280
 **** Fit       0.006852
 **** Fit       0.007569
 **** Fit       0.008349
 **** Fit       0.009127
 **** Fit       0.009862
 **** Fit       0.010523
 **** Fit       0.011097
 **** Fit       0.011638
 **** Fit       0.011502
 **** Fit       0.011188
 **** Fit       0.010697
 **** Fit       0.010022
 **** Fit       0.009214
 **** Fit       0.008410
 **** Fit       0.007784
 **** Fit       0.007475
 **** Fit       0.007529
 **** Fit       0.007892
 **** Fit       0.008460
 **** Fit       0.009124
 **** Fit       0.009794
 **** Fit       0.010410
 **** Fit       0.010931
 **** Fit       0.011331
 **** Fit       0.011578
 **** Fit       0.011190
 **** Fit       0.011023
 **** Fit       0.010585
 **** Fit       0.009923
 **** Fit       0.009214
 **** Fit       0.008729
 **** Fit       0.008660
 **** Fit       0.008993
 **** Fit       0.009564
 **** Fit       0.010188
 **** Fit       0.010725
 **** Fit       0.011080
 **** Fit       0.010741
 **** Fit       0.010426
 **** Fit       0.009797
 **** Fit       0.009536
 **** Fit       0.009926
 **** Fit       0.010503
 **** Fit       0.010211
 **** Fit       0.015760
 **** Fit       0.014786
 **** Fit       0.014572
 **** Fit       0.013898
 **** Fit       0.014125
 **** Fit       0.014060
 **** Fit       0.013858
 **** Fit       0.013317
 **** Fit       0.012225
 **** Fit       0.009737
 **** Fit       0.013625
 **** Fit       0.013590
 **** Fit       0.013473
 **** Fit       0.013130
 **** Fit       0.012432
 **** Fit       0.011296
 **** Fit       0.011116
 **** Fit       0.010118
 **** Fit       0.009175
 **** Fit       0.008405
 **** Fit       0.007816
 **** Fit       0.013256
 **** Fit       0.013224
 **** Fit       0.013054
 **** Fit       0.012661
 **** Fit       0.012004
 **** Fit       0.011965
 **** Fit       0.011434
 **** Fit       0.010930
 **** Fit       0.010515
 **** Fit       0.010212
 **** Fit       0.010035
 **** Fit       0.009992
 **** Fit       0.012994
 **** Fit       0.013017
 **** Fit       0.012967
 **** Fit       0.012782
 **** Fit       0.012439
 **** Fit       0.012411
 **** Fit       0.012120
 **** Fit       0.011839
 **** Fit       0.011600
 **** Fit       0.011408
 **** Fit       0.011247
 **** Fit       0.012819
 **** Fit       0.012850
 **** Fit       0.012807
 **** Fit       0.012656
 **** Fit       0.012573
 **** Fit       0.012413
 **** Fit       0.012236
 **** Fit       0.012056
 **** Fit       0.011868
 **** Fit       0.012693
 **** Fit       0.012722
 **** Fit       0.012684
 **** Fit       0.012557
 **** Fit       0.012452
 **** Fit       0.012305
 **** Fit       0.012136
 **** Fit       0.012589
 **** Fit       0.012603
 **** Fit       0.012471
 **** Fit       0.012378
 **** Fit       0.012501
 **** Fit       0.005602
 **** Fit       0.008523
 **** Fit       0.011058
 **** Fit       0.013430
 **** Fit       0.002352
 **** Fit       0.005501
 **** Fit       0.008039
 **** Fit       0.010192
 **** Fit       0.012237
 **** Fit       0.014511
 **** Fit      -0.002471
 **** Fit       0.001605
 **** Fit       0.004734
 **** Fit       0.007190
 **** Fit       0.009188
 **** Fit       0.010923
 **** Fit       0.012600
 **** Fit       0.014484
 **** Fit      -0.000182
 **** Fit       0.003237
 **** Fit       0.005864
 **** Fit       0.007941
 **** Fit       0.009638
 **** Fit       0.011100
 **** Fit       0.012473
 **** Fit       0.013934
 **** Fit       0.015718
 **** Fit      -0.001580
 **** Fit       0.001974
 **** Fit       0.004696
 **** Fit       0.006837
 **** Fit       0.008560
 **** Fit       0.009980
 **** Fit       0.011196
 **** Fit       0.012306
 **** Fit       0.013420
 **** Fit       0.014671
 **** Fit       0.016230
 **** Fit      -0.001833
 **** Fit       0.001681
 **** Fit       0.004379
 **** Fit       0.006504
 **** Fit       0.008209
 **** Fit       0.009597
 **** Fit       0.010753
 **** Fit       0.011752
 **** Fit       0.012673
 **** Fit       0.013602
 **** Fit       0.014640
 **** Fit       0.015895
 **** Fit      -0.005942
 **** Fit      -0.001619
 **** Fit       0.001645
 **** Fit       0.004195
 **** Fit       0.006231
 **** Fit       0.007877
 **** Fit       0.009221
 **** Fit       0.010329
 **** Fit       0.011259
 **** Fit       0.012071
 **** Fit       0.012823
 **** Fit       0.013582
 **** Fit       0.014418
 **** Fit      -0.002447
 **** Fit       0.000780
 **** Fit       0.003343
 **** Fit       0.005416
 **** Fit       0.007109
 **** Fit       0.008500
 **** Fit       0.009645
 **** Fit       0.010593
 **** Fit       0.011390
 **** Fit       0.012082
 **** Fit       0.012720
 **** Fit       0.013358
 **** Fit       0.014057
 **** Fit       0.000820
 **** Fit       0.003239
 **** Fit       0.005239
 **** Fit       0.006898
 **** Fit       0.008272
 **** Fit       0.009408
 **** Fit       0.010346
 **** Fit       0.011126
 **** Fit       0.011790
 **** Fit       0.012386
 **** Fit       0.012969
 **** Fit       0.013608
 **** Fit       0.002620
 **** Fit       0.004572
 **** Fit       0.006250
 **** Fit       0.007673
 **** Fit       0.008867
 **** Fit       0.009858
 **** Fit       0.010680
 **** Fit       0.011370
 **** Fit       0.011975
 **** Fit       0.012551
 **** Fit       0.005877
 **** Fit       0.007214
 **** Fit       0.008389
 **** Fit       0.009396
 **** Fit       0.010247
 **** Fit       0.010968
 **** Fit       0.011596
 **** Fit       0.012188
 **** Fit       0.008479
 **** Fit       0.009433
 **** Fit       0.010269
 **** Fit       0.011000
 -----------------------------------------------------------------
 Leave Link  602 at Wed Sep 23 21:43:20 2015, MaxMem=    6291456 cpu:      12.9

 Test job not archived.
 1\1\GINC-COMPUTE-2-8\FOpt\RHF\6-31G(d)\C23H25N3O2\SHUNZHOU\23-Sep-2015
 \0\\#HF/6-31G* SCF=tight Test Pop=MK iop(6/33=2) iop(6/42=6) opt\\rema
 rk line goes here\\0,1\C,14.9220489865,6.0650383168,10.0891870685\C,14
 .0060534495,5.1485913071,9.2833704331\C,14.7984912916,4.2006171004,8.3
 637521192\C,14.0792311471,2.8611731743,8.1623726515\N,14.7700309283,2.
 0814015057,7.1685964628\C,14.2293076564,0.9803951119,6.5118886251\C,12
 .8802986719,0.6383621392,6.5814458804\C,12.3973409311,-0.4489086942,5.
 8676158325\C,13.2333228131,-1.2231638141,5.0852257046\C,14.5789771377,
 -0.8891903375,5.0220749547\C,15.0720846057,0.1938700075,5.7202080969\C
 ,13.9632080747,2.2370560127,9.545786242\C,14.3864519613,0.9636540286,9
 .8740577117\C,14.3315390592,0.4958219937,11.1872149728\C,13.8741285443
 ,1.3563967954,12.1756240835\C,13.4820791677,2.6496499392,11.8660776154
 \C,13.4920182916,3.0818793529,10.5518342038\N,13.0960406566,4.38587681
 62,10.1635465571\C,11.9020199627,4.9741660761,10.4912896467\C,10.83762
 36981,4.1508427375,11.1898634981\O,11.6804012666,6.1202373055,10.20791
 63969\C,14.7648655006,-0.8831452874,11.5123686484\C,14.2341007107,-2.1
 236458351,11.0056028365\C,13.1097526167,-2.3250240731,10.0375425471\N,
 14.8451958305,-3.1283196349,11.51471573\O,15.7920085907,-2.6189397619,
 12.3584258845\C,15.7350692068,-1.2972410839,12.3505538639\C,16.7196336
 499,-0.584685875,13.2139795974\H,13.3629716591,5.7593485561,8.66993381
 44\H,13.0851922291,3.0759396336,7.7862518571\H,14.3375152306,6.7780927
 865,10.6560142977\H,15.5359430492,5.4889347852,10.7754064901\H,15.5836
 136535,6.6158087277,9.4264404289\H,14.9537163399,4.683439514,7.4057098
 127\H,15.7801288367,3.9994591376,8.7862328084\H,15.7583670637,2.041533
 8794,7.2874210259\H,12.2019445877,1.2049164348,7.1899328324\H,11.35085
 71403,-0.6894222664,5.9354647297\H,12.850778745,-2.0658210161,4.539181
 4345\H,15.251523976,-1.4756352819,4.4212579951\H,16.1162981106,0.44670
 43793,5.6493441608\H,14.7686050417,0.319273862,9.105677179\H,13.826680
 4898,1.0197919217,13.1954341041\H,13.1694140463,3.3153519051,12.648674
 5856\H,10.8523968189,3.1055670118,10.9154439485\H,9.8850547918,4.58953
 96081,10.9293048826\H,10.9541159741,4.2228775268,12.2653262858\H,12.21
 36253378,-1.8260423117,10.3903157362\H,13.3518622718,-1.9160780189,9.0
 633908301\H,12.905487033,-3.3817736989,9.9307724433\H,17.7246446111,-0
 .9197819312,12.9838173938\H,16.6588183476,0.4834172619,13.0575581027\H
 ,16.5301202071,-0.7982077298,14.2605549555\\Version=AM64L-G03RevD.02\S
 tate=1-A\HF=-1198.5818731\RMSD=2.932e-09\RMSF=4.269e-06\Thermal=0.\Dip
 ole=0.5517823,0.3014859,0.2011327\PG=C01 [X(C23H25N3O2)]\\@


 YOU KNOW YOU'RE A TEACHER WHEN YOU SAY 2, WRITE 3, AND MEAN 4.
 -- RONALD ANSTROM, HIGH SCHOOL TEACHER, UNDERWOOD, N.D. 1974
 Job cpu time:  0 days  5 hours 35 minutes 43.8 seconds.
 File lengths (MBytes):  RWF=    149 Int=      0 D2E=      0 Chk=     22 Scr=      1
 Normal termination of Gaussian 03 at Wed Sep 23 21:43:21 2015.
