 Entering Gaussian System, Link 0=/usr/local/g09_c01/g09
 Initial command:
 /usr/local/g09_c01/l1.exe /scr/gf/dave/122080/Gau-9595.inp -scrdir=/scr/gf/dave/122080/
 Entering Link 1 = /usr/local/g09_c01/l1.exe PID=      9597.
  
 Copyright (c) 1988,1990,1992,1993,1995,1998,2003,2009,2011,
            Gaussian, Inc.  All Rights Reserved.
  
 This is part of the Gaussian(R) 09 program.  It is based on
 the Gaussian(R) 03 system (copyright 2003, Gaussian, Inc.),
 the Gaussian(R) 98 system (copyright 1998, Gaussian, Inc.),
 the Gaussian(R) 94 system (copyright 1995, Gaussian, Inc.),
 the Gaussian 92(TM) system (copyright 1992, Gaussian, Inc.),
 the Gaussian 90(TM) system (copyright 1990, Gaussian, Inc.),
 the Gaussian 88(TM) system (copyright 1988, Gaussian, Inc.),
 the Gaussian 86(TM) system (copyright 1986, Carnegie Mellon
 University), and the Gaussian 82(TM) system (copyright 1983,
 Carnegie Mellon University). Gaussian is a federally registered
 trademark of Gaussian, Inc.
  
 This software contains proprietary and confidential information,
 including trade secrets, belonging to Gaussian, Inc.
  
 This software is provided under written license and may be
 used, copied, transmitted, or stored only in accord with that
 written license.
  
 The following legend is applicable only to US Government
 contracts under FAR:
  
                    RESTRICTED RIGHTS LEGEND
  
 Use, reproduction and disclosure by the US Government is
 subject to restrictions as set forth in subparagraphs (a)
 and (c) of the Commercial Computer Software - Restricted
 Rights clause in FAR 52.227-19.
  
 Gaussian, Inc.
 340 Quinnipiac St., Bldg. 40, Wallingford CT 06492
  
  
 ---------------------------------------------------------------
 Warning -- This program may not be used in any manner that
 competes with the business of Gaussian, Inc. or will provide
 assistance to any competitor of Gaussian, Inc.  The licensee
 of this program is prohibited from giving any competitor of
 Gaussian, Inc. access to this program.  By using this program,
 the user acknowledges that Gaussian, Inc. is engaged in the
 business of creating and licensing software in the field of
 computational chemistry and represents and warrants to the
 licensee that it is not a competitor of Gaussian, Inc. and that
 it will not use this program in any manner prohibited above.
 ---------------------------------------------------------------
  

 Cite this work as:
 Gaussian 09, Revision C.01,
 M. J. Frisch, G. W. Trucks, H. B. Schlegel, G. E. Scuseria, 
 M. A. Robb, J. R. Cheeseman, G. Scalmani, V. Barone, B. Mennucci, 
 G. A. Petersson, H. Nakatsuji, M. Caricato, X. Li, H. P. Hratchian, 
 A. F. Izmaylov, J. Bloino, G. Zheng, J. L. Sonnenberg, M. Hada, 
 M. Ehara, K. Toyota, R. Fukuda, J. Hasegawa, M. Ishida, T. Nakajima, 
 Y. Honda, O. Kitao, H. Nakai, T. Vreven, J. A. Montgomery, Jr., 
 J. E. Peralta, F. Ogliaro, M. Bearpark, J. J. Heyd, E. Brothers, 
 K. N. Kudin, V. N. Staroverov, T. Keith, R. Kobayashi, J. Normand, 
 K. Raghavachari, A. Rendell, J. C. Burant, S. S. Iyengar, J. Tomasi, 
 M. Cossi, N. Rega, J. M. Millam, M. Klene, J. E. Knox, J. B. Cross, 
 V. Bakken, C. Adamo, J. Jaramillo, R. Gomperts, R. E. Stratmann, 
 O. Yazyev, A. J. Austin, R. Cammi, C. Pomelli, J. W. Ochterski, 
 R. L. Martin, K. Morokuma, V. G. Zakrzewski, G. A. Voth, 
 P. Salvador, J. J. Dannenberg, S. Dapprich, A. D. Daniels, 
 O. Farkas, J. B. Foresman, J. V. Ortiz, J. Cioslowski, 
 and D. J. Fox, Gaussian, Inc., Wallingford CT, 2010.
 
 ******************************************
 Gaussian 09:  EM64L-G09RevC.01 23-Sep-2011
                29-Nov-2017 
 ******************************************
 %chk=molecule
 ------------------------------------------------------------
 #HF/6-31G* SCF=tight Test Pop=MK iop(6/33=2) iop(6/42=6) opt
 ------------------------------------------------------------
 1/18=20,19=15,38=1/1,3;
 2/9=110,12=2,17=6,18=5,40=1/2;
 3/5=1,6=6,7=1,11=9,16=1,25=1,30=1,71=1/1,2,3;
 4//1;
 5/5=2,32=2,38=5/2;
 6/7=2,8=2,9=2,10=2,15=8,20=1,28=1,33=2,42=6/1,2;
 7//1,2,3,16;
 1/18=20,19=15/3(2);
 2/9=110/2;
 99//99;
 2/9=110/2;
 3/5=1,6=6,7=1,11=9,16=1,25=1,30=1,71=1/1,2,3;
 4/5=5,16=3/1;
 5/5=2,32=2,38=5/2;
 7//1,2,3,16;
 1/18=20,19=15/3(-5);
 2/9=110/2;
 6/7=2,8=2,9=2,10=2,15=8,19=2,20=1,28=1,33=2,42=6/1,2;
 99/9=1/99;
 ---------------------
 remark line goes here
 ---------------------
 Charge =  0 Multiplicity = 1
 Symbolic Z-Matrix:
 C                     3.131     10.015   -9.514 
 C                     3.38      9.779    -10.851 
 C                     2.39      9.375    -11.729 
 C                     1.084     9.219    -11.246 
 C                     0.807     9.458    -9.881 
 C                     1.833     9.843    -9.019 
 C                    -0.495     9.197    -9.404 
 C                    -0.816     8.299    -8.367 
 C                     0.088     7.485    -7.457 
 N                    -2.134     8.198    -8.195 
 O                    -2.72      9.024    -9.159 
 C                    -1.732     9.613    -9.901 
 N                    -2.023     10.599   -11.042 
 C                     2.715     9.105    -13.195 
 F                     1.583     8.724    -13.847 
 F                     3.642     8.113    -13.279 
 F                     3.208     10.236   -13.766 
 H                    -1.575     10.224   -11.974 
 H                    -3.111     10.699   -11.171 
 H                     0.707     6.809    -8.065 
 H                     0.738     8.163    -6.884 
 H                    -0.527     6.894    -6.763 
 H                     1.627     10.009   -7.968 
 H                     0.289     8.916    -11.918 
 H                     4.388     9.915    -11.226 
 H                     3.931     10.331   -8.855 
 

 GradGradGradGradGradGradGradGradGradGradGradGradGradGradGradGradGradGrad
 Berny optimization.
 Initialization pass.
                           ----------------------------
                           !    Initial Parameters    !
                           ! (Angstroms and Degrees)  !
 --------------------------                            --------------------------
 ! Name  Definition              Value          Derivative Info.                !
 --------------------------------------------------------------------------------
 ! R1    R(1,2)                  1.3803         estimate D2E/DX2                !
 ! R2    R(1,6)                  1.3998         estimate D2E/DX2                !
 ! R3    R(1,26)                 1.0836         estimate D2E/DX2                !
 ! R4    R(2,3)                  1.3835         estimate D2E/DX2                !
 ! R5    R(2,25)                 1.0841         estimate D2E/DX2                !
 ! R6    R(3,4)                  1.4012         estimate D2E/DX2                !
 ! R7    R(3,14)                 1.5257         estimate D2E/DX2                !
 ! R8    R(4,5)                  1.4132         estimate D2E/DX2                !
 ! R9    R(4,24)                 1.0842         estimate D2E/DX2                !
 ! R10   R(5,6)                  1.3943         estimate D2E/DX2                !
 ! R11   R(5,7)                  1.411          estimate D2E/DX2                !
 ! R12   R(6,23)                 1.0838         estimate D2E/DX2                !
 ! R13   R(7,8)                  1.4088         estimate D2E/DX2                !
 ! R14   R(7,12)                 1.3965         estimate D2E/DX2                !
 ! R15   R(8,9)                  1.5192         estimate D2E/DX2                !
 ! R16   R(8,10)                 1.333          estimate D2E/DX2                !
 ! R17   R(9,20)                 1.0999         estimate D2E/DX2                !
 ! R18   R(9,21)                 1.1002         estimate D2E/DX2                !
 ! R19   R(9,22)                 1.0996         estimate D2E/DX2                !
 ! R20   R(10,11)                1.3982         estimate D2E/DX2                !
 ! R21   R(11,12)                1.3688         estimate D2E/DX2                !
 ! R22   R(12,13)                1.5358         estimate D2E/DX2                !
 ! R23   R(13,18)                1.1            estimate D2E/DX2                !
 ! R24   R(13,19)                1.1002         estimate D2E/DX2                !
 ! R25   R(14,15)                1.3608         estimate D2E/DX2                !
 ! R26   R(14,16)                1.3603         estimate D2E/DX2                !
 ! R27   R(14,17)                1.3595         estimate D2E/DX2                !
 ! A1    A(2,1,6)              119.2614         estimate D2E/DX2                !
 ! A2    A(2,1,26)             120.3821         estimate D2E/DX2                !
 ! A3    A(6,1,26)             120.3565         estimate D2E/DX2                !
 ! A4    A(1,2,3)              122.38           estimate D2E/DX2                !
 ! A5    A(1,2,25)             118.7739         estimate D2E/DX2                !
 ! A6    A(3,2,25)             118.8461         estimate D2E/DX2                !
 ! A7    A(2,3,4)              118.7317         estimate D2E/DX2                !
 ! A8    A(2,3,14)             120.5991         estimate D2E/DX2                !
 ! A9    A(4,3,14)             120.6692         estimate D2E/DX2                !
 ! A10   A(3,4,5)              119.7906         estimate D2E/DX2                !
 ! A11   A(3,4,24)             120.0616         estimate D2E/DX2                !
 ! A12   A(5,4,24)             120.1478         estimate D2E/DX2                !
 ! A13   A(4,5,6)              119.9757         estimate D2E/DX2                !
 ! A14   A(4,5,7)              118.4328         estimate D2E/DX2                !
 ! A15   A(6,5,7)              121.4069         estimate D2E/DX2                !
 ! A16   A(1,6,5)              119.8457         estimate D2E/DX2                !
 ! A17   A(1,6,23)             120.0237         estimate D2E/DX2                !
 ! A18   A(5,6,23)             120.1305         estimate D2E/DX2                !
 ! A19   A(5,7,8)              125.2395         estimate D2E/DX2                !
 ! A20   A(5,7,12)             129.9376         estimate D2E/DX2                !
 ! A21   A(8,7,12)             104.4781         estimate D2E/DX2                !
 ! A22   A(7,8,9)              130.3053         estimate D2E/DX2                !
 ! A23   A(7,8,10)             111.6265         estimate D2E/DX2                !
 ! A24   A(9,8,10)             118.0648         estimate D2E/DX2                !
 ! A25   A(8,9,20)             109.4557         estimate D2E/DX2                !
 ! A26   A(8,9,21)             109.4707         estimate D2E/DX2                !
 ! A27   A(8,9,22)             109.4646         estimate D2E/DX2                !
 ! A28   A(20,9,21)            109.5203         estimate D2E/DX2                !
 ! A29   A(20,9,22)            109.4694         estimate D2E/DX2                !
 ! A30   A(21,9,22)            109.4466         estimate D2E/DX2                !
 ! A31   A(8,10,11)            106.3001         estimate D2E/DX2                !
 ! A32   A(10,11,12)           108.9918         estimate D2E/DX2                !
 ! A33   A(7,12,11)            108.5574         estimate D2E/DX2                !
 ! A34   A(7,12,13)            128.5702         estimate D2E/DX2                !
 ! A35   A(11,12,13)           122.8345         estimate D2E/DX2                !
 ! A36   A(12,13,18)           109.4773         estimate D2E/DX2                !
 ! A37   A(12,13,19)           109.4414         estimate D2E/DX2                !
 ! A38   A(18,13,19)           109.5368         estimate D2E/DX2                !
 ! A39   A(3,14,15)            109.4353         estimate D2E/DX2                !
 ! A40   A(3,14,16)            109.4847         estimate D2E/DX2                !
 ! A41   A(3,14,17)            109.4875         estimate D2E/DX2                !
 ! A42   A(15,14,16)           109.4588         estimate D2E/DX2                !
 ! A43   A(15,14,17)           109.4725         estimate D2E/DX2                !
 ! A44   A(16,14,17)           109.4885         estimate D2E/DX2                !
 ! D1    D(6,1,2,3)             -0.0419         estimate D2E/DX2                !
 ! D2    D(6,1,2,25)           179.9774         estimate D2E/DX2                !
 ! D3    D(26,1,2,3)          -179.9719         estimate D2E/DX2                !
 ! D4    D(26,1,2,25)            0.0474         estimate D2E/DX2                !
 ! D5    D(2,1,6,5)             -1.0144         estimate D2E/DX2                !
 ! D6    D(2,1,6,23)           178.9891         estimate D2E/DX2                !
 ! D7    D(26,1,6,5)           178.9157         estimate D2E/DX2                !
 ! D8    D(26,1,6,23)           -1.0809         estimate D2E/DX2                !
 ! D9    D(1,2,3,4)              0.9482         estimate D2E/DX2                !
 ! D10   D(1,2,3,14)          -179.0633         estimate D2E/DX2                !
 ! D11   D(25,2,3,4)          -179.0712         estimate D2E/DX2                !
 ! D12   D(25,2,3,14)            0.9173         estimate D2E/DX2                !
 ! D13   D(2,3,4,5)             -0.7989         estimate D2E/DX2                !
 ! D14   D(2,3,4,24)           179.1927         estimate D2E/DX2                !
 ! D15   D(14,3,4,5)           179.2126         estimate D2E/DX2                !
 ! D16   D(14,3,4,24)           -0.7957         estimate D2E/DX2                !
 ! D17   D(2,3,14,15)         -179.9926         estimate D2E/DX2                !
 ! D18   D(2,3,14,16)           60.0363         estimate D2E/DX2                !
 ! D19   D(2,3,14,17)          -60.0031         estimate D2E/DX2                !
 ! D20   D(4,3,14,15)           -0.0044         estimate D2E/DX2                !
 ! D21   D(4,3,14,16)         -119.9754         estimate D2E/DX2                !
 ! D22   D(4,3,14,17)          119.9851         estimate D2E/DX2                !
 ! D23   D(3,4,5,6)             -0.2318         estimate D2E/DX2                !
 ! D24   D(3,4,5,7)           -175.3645         estimate D2E/DX2                !
 ! D25   D(24,4,5,6)           179.7766         estimate D2E/DX2                !
 ! D26   D(24,4,5,7)             4.6439         estimate D2E/DX2                !
 ! D27   D(4,5,6,1)              1.1448         estimate D2E/DX2                !
 ! D28   D(4,5,6,23)          -178.8586         estimate D2E/DX2                !
 ! D29   D(7,5,6,1)            176.1295         estimate D2E/DX2                !
 ! D30   D(7,5,6,23)            -3.874          estimate D2E/DX2                !
 ! D31   D(4,5,7,8)            121.2981         estimate D2E/DX2                !
 ! D32   D(4,5,7,12)           -50.8819         estimate D2E/DX2                !
 ! D33   D(6,5,7,8)            -53.7617         estimate D2E/DX2                !
 ! D34   D(6,5,7,12)           134.0584         estimate D2E/DX2                !
 ! D35   D(5,7,8,9)              4.7535         estimate D2E/DX2                !
 ! D36   D(5,7,8,10)          -175.9513         estimate D2E/DX2                !
 ! D37   D(12,7,8,9)           178.5681         estimate D2E/DX2                !
 ! D38   D(12,7,8,10)           -2.1368         estimate D2E/DX2                !
 ! D39   D(5,7,12,11)          175.4619         estimate D2E/DX2                !
 ! D40   D(5,7,12,13)           -6.7568         estimate D2E/DX2                !
 ! D41   D(8,7,12,11)            2.0525         estimate D2E/DX2                !
 ! D42   D(8,7,12,13)          179.8338         estimate D2E/DX2                !
 ! D43   D(7,8,9,20)           -60.0661         estimate D2E/DX2                !
 ! D44   D(7,8,9,21)            59.9841         estimate D2E/DX2                !
 ! D45   D(7,8,9,22)           179.9497         estimate D2E/DX2                !
 ! D46   D(10,8,9,20)          120.6765         estimate D2E/DX2                !
 ! D47   D(10,8,9,21)         -119.2733         estimate D2E/DX2                !
 ! D48   D(10,8,9,22)            0.6922         estimate D2E/DX2                !
 ! D49   D(7,8,10,11)            1.3573         estimate D2E/DX2                !
 ! D50   D(9,8,10,11)         -179.2519         estimate D2E/DX2                !
 ! D51   D(8,10,11,12)          -0.0046         estimate D2E/DX2                !
 ! D52   D(10,11,12,7)          -1.3352         estimate D2E/DX2                !
 ! D53   D(10,11,12,13)       -179.2708         estimate D2E/DX2                !
 ! D54   D(7,12,13,18)          59.99           estimate D2E/DX2                !
 ! D55   D(7,12,13,19)        -179.9441         estimate D2E/DX2                !
 ! D56   D(11,12,13,18)       -122.5134         estimate D2E/DX2                !
 ! D57   D(11,12,13,19)         -2.4476         estimate D2E/DX2                !
 --------------------------------------------------------------------------------
 Trust Radius=3.00D-01 FncErr=1.00D-07 GrdErr=1.00D-07
 Number of steps in this run=    138 maximum allowed number of steps=    156.
 GradGradGradGradGradGradGradGradGradGradGradGradGradGradGradGradGradGrad

                          Input orientation:                          
 ---------------------------------------------------------------------
 Center     Atomic      Atomic             Coordinates (Angstroms)
 Number     Number       Type             X           Y           Z
 ---------------------------------------------------------------------
      1          6           0        3.131000   10.015000   -9.514000
      2          6           0        3.380000    9.779000  -10.851000
      3          6           0        2.390000    9.375000  -11.729000
      4          6           0        1.084000    9.219000  -11.246000
      5          6           0        0.807000    9.458000   -9.881000
      6          6           0        1.833000    9.843000   -9.019000
      7          6           0       -0.495000    9.197000   -9.404000
      8          6           0       -0.816000    8.299000   -8.367000
      9          6           0        0.088000    7.485000   -7.457000
     10          7           0       -2.134000    8.198000   -8.195000
     11          8           0       -2.720000    9.024000   -9.159000
     12          6           0       -1.732000    9.613000   -9.901000
     13          7           0       -2.023000   10.599000  -11.042000
     14          6           0        2.715000    9.105000  -13.195000
     15          9           0        1.583000    8.724000  -13.847000
     16          9           0        3.642000    8.113000  -13.279000
     17          9           0        3.208000   10.236000  -13.766000
     18          1           0       -1.575000   10.224000  -11.974000
     19          1           0       -3.111000   10.699000  -11.171000
     20          1           0        0.707000    6.809000   -8.065000
     21          1           0        0.738000    8.163000   -6.884000
     22          1           0       -0.527000    6.894000   -6.763000
     23          1           0        1.627000   10.009000   -7.968000
     24          1           0        0.289000    8.916000  -11.918000
     25          1           0        4.388000    9.915000  -11.226000
     26          1           0        3.931000   10.331000   -8.855000
 ---------------------------------------------------------------------
                    Distance matrix (angstroms):
                    1          2          3          4          5
     1  C    0.000000
     2  C    1.380314   0.000000
     3  C    2.421757   1.383546   0.000000
     4  C    2.797079   2.396089   1.401164   0.000000
     5  C    2.417833   2.768442   2.434724   1.413179   0.000000
     6  C    1.399790   2.398651   2.805953   2.431030   1.394254
     7  C    3.718750   4.177099   3.709519   2.426250   1.410976
     8  C    4.454108   5.095790   4.768570   3.570020   2.503918
     9  C    4.460045   5.255372   5.207810   4.284308   3.207096
    10  N    5.723764   6.321241   5.860125   4.550447   3.616584
    11  O    5.944940   6.375178   5.730637   4.343272   3.626206
    12  C    4.894910   5.202173   4.515430   3.145492   2.543805
    13  N    5.407361   5.468207   4.630844   3.405799   3.264767
    14  C    3.814566   2.528010   1.525674   2.543965   3.840269
    15  F    4.778899   3.649418   2.358172   2.694295   4.107321
    16  F    4.248994   2.956245   2.358527   3.449593   4.625219
    17  F    4.258436   2.955615   2.357926   3.449067   4.632851
    18  H    5.314294   5.100116   4.062272   2.934330   3.262105
    19  H    6.494311   6.563679   5.685538   4.449050   4.307540
    20  H    4.272448   4.871101   4.779303   4.008614   3.213263
    21  H    4.009146   5.032764   5.260425   4.501322   3.265547
    22  H    5.539820   6.348198   6.270997   5.300777   4.251538
    23  H    2.156888   3.381952   3.889633   3.415294   2.153037
    24  H    3.881234   3.381943   2.158843   1.084167   2.170589
    25  H    2.126263   1.084060   2.129933   3.376571   3.852458
    26  H    1.083576   2.142970   3.398307   3.880571   3.402085
                    6          7          8          9         10
     6  C    0.000000
     7  C    2.446452   0.000000
     8  C    3.134684   1.408834   0.000000
     9  C    3.323407   2.657375   1.519181   0.000000
    10  N    4.372881   2.268480   1.333008   2.447508   0.000000
    11  O    4.628193   2.245123   2.185888   3.626319   1.398202
    12  C    3.679681   1.396508   2.217839   3.716708   2.252613
    13  N    4.419593   2.642618   3.728602   5.196686   3.725927
    14  C    4.331460   4.968324   6.035493   6.515380   7.023920
    15  F    4.962282   4.927683   5.997185   6.678491   6.785121
    16  F    4.940949   5.771087   6.635970   6.849889   7.695223
    17  F    4.957730   5.815391   7.006693   7.556843   7.982885
    18  H    4.526770   2.970863   4.158384   5.538139   4.324118
    19  H    5.459577   3.495962   4.346198   5.861501   4.008255
    20  H    3.373892   2.990028   2.151937   1.099910   3.165044
    21  H    2.929104   2.989957   2.152371   1.100233   3.157266
    22  H    4.399516   3.504242   2.151828   1.099610   2.516642
    23  H    1.083786   2.687810   3.008579   3.000036   4.180475
    24  H    3.412838   2.648360   3.769790   4.689209   4.499687
    25  H    3.376989   5.261074   6.153613   6.212911   7.394020
    26  H    2.160242   4.601829   5.186634   4.982245   6.462934
                   11         12         13         14         15
    11  O    0.000000
    12  C    1.368806   0.000000
    13  N    2.551886   1.535825   0.000000
    14  C    6.770161   5.557365   5.414433   0.000000
    15  F    6.370491   5.229767   4.938308   1.360768   0.000000
    16  F    7.634092   6.522328   6.578495   1.360312   2.221582
    17  F    7.604905   6.303170   5.908917   1.359504   2.221110
    18  H    3.267300   2.166864   1.099979   4.598598   3.966244
    19  H    2.647008   2.166550   1.100175   6.370219   5.752846
    20  H    4.224617   4.145122   5.538910   5.968298   6.153546
    21  H    4.227849   4.160011   5.553934   6.680166   7.036485
    22  H    3.884194   4.323428   5.854475   7.534568   7.614726
    23  H    4.613579   3.895662   4.808334   5.415024   6.017957
    24  H    4.083849   2.939139   2.990854   2.748077   2.330738
    25  H    7.455872   6.269069   6.450010   2.707765   4.019471
    26  H    6.785018   5.803379   6.348615   4.670903   5.745922
                   16         17         18         19         20
    16  F    0.000000
    17  F    2.220958   0.000000
    18  H    5.777234   5.107690   0.000000
    19  H    7.532202   6.846762   1.797145   0.000000
    20  H    6.123760   7.106387   5.670100   6.273473   0.000000
    21  H    7.023656   7.600010   5.958674   6.294797   1.796952
    22  H    7.831014   8.611690   6.272298   6.370679   1.795880
    23  H    5.988469   6.013975   5.132939   5.760551   3.331037
    24  H    3.706715   3.698387   2.277827   3.911150   4.411324
    25  H    2.831701   2.819050   6.017670   7.540072   5.760982
    26  H    4.957300   4.964844   6.328953   7.422199   4.839707
                   21         22         23         24         25
    21  H    0.000000
    22  H    1.795892   0.000000
    23  H    2.317993   3.974288   0.000000
    24  H    5.109772   5.597175   4.311310   0.000000
    25  H    5.936747   7.293973   4.271595   4.275356   0.000000
    26  H    4.333626   6.005264   2.489753   4.964711   2.450213
                   26
    26  H    0.000000
 Stoichiometry    C11H9F3N2O
 Framework group  C1[X(C11H9F3N2O)]
 Deg. of freedom    72
 Full point group                 C1      NOp   1
 Largest Abelian subgroup         C1      NOp   1
 Largest concise Abelian subgroup C1      NOp   1
                         Standard orientation:                         
 ---------------------------------------------------------------------
 Center     Atomic      Atomic             Coordinates (Angstroms)
 Number     Number       Type             X           Y           Z
 ---------------------------------------------------------------------
      1          6           0        0.923332    2.250112   -1.155086
      2          6           0        1.999197    1.510522   -0.706992
      3          6           0        1.848796    0.275061   -0.102661
      4          6           0        0.558420   -0.251655    0.041430
      5          6           0       -0.556671    0.488126   -0.412850
      6          6           0       -0.370678    1.740010   -0.997776
      7          6           0       -1.848215   -0.022935   -0.164689
      8          6           0       -2.859654    0.639864    0.558154
      9          6           0       -2.888354    2.038285    1.151032
     10          7           0       -3.941986   -0.124777    0.702347
     11          8           0       -3.644570   -1.345559    0.088994
     12          6           0       -2.374435   -1.291381   -0.418403
     13          7           0       -1.729448   -2.461778   -1.175320
     14          6           0        3.065328   -0.498433    0.396775
     15          9           0        2.659212   -1.674583    0.947620
     16          9           0        3.718578    0.239452    1.334453
     17          9           0        3.901414   -0.750761   -0.645118
     18          1           0       -0.796611   -2.754848   -0.671457
     19          1           0       -2.423497   -3.315280   -1.190001
     20          1           0       -2.076142    2.141557    1.885503
     21          1           0       -2.755114    2.779489    0.348923
     22          1           0       -3.855026    2.205986    1.647583
     23          1           0       -1.225374    2.317551   -1.330244
     24          1           0        0.416724   -1.223809    0.499968
     25          1           0        2.997861    1.912934   -0.833162
     26          1           0        1.078552    3.214341   -1.624454
 ---------------------------------------------------------------------
 Rotational constants (GHZ):      0.8403507      0.2675380      0.2325830
 Standard basis: 6-31G(d) (6D, 7F)
 There are   273 symmetry adapted basis functions of A   symmetry.
 Integral buffers will be    131072 words long.
 Raffenetti 1 integral format.
 Two-electron integral symmetry is turned on.
   273 basis functions,   512 primitive gaussians,   273 cartesian basis functions
    62 alpha electrons       62 beta electrons
       nuclear repulsion energy      1196.2144206688 Hartrees.
 NAtoms=   26 NActive=   26 NUniq=   26 SFac= 1.00D+00 NAtFMM=   60 NAOKFM=F Big=F
 One-electron integrals computed using PRISM.
 NBasis=   273 RedAO= T  NBF=   273
 NBsUse=   273 1.00D-06 NBFU=   273
 Harris functional with IExCor=  205 diagonalized for initial guess.
 ExpMin= 1.61D-01 ExpMax= 7.00D+03 ExpMxC= 1.05D+03 IAcc=1 IRadAn=         1 AccDes= 0.00D+00
 HarFok:  IExCor=  205 AccDes= 0.00D+00 IRadAn=         1 IDoV= 1
 ScaDFX=  1.000000  1.000000  1.000000  1.000000
 FoFCou: FMM=F IPFlag=           0 FMFlag=      100000 FMFlg1=           0
         NFxFlg=           0 DoJE=T BraDBF=F KetDBF=T FulRan=T
         Omega=  0.000000  0.000000  1.000000  0.000000  0.000000 ICntrl=     500 IOpCl=  0
         NMat0=    1 NMatS0=    1 NMatT0=    0 NMatD0=    1 NMtDS0=    0 NMtDT0=    0
         I1Cent=           4 NGrid=           0.
 Petite list used in FoFCou.
 Initial guess orbital symmetries:
       Occupied  (A) (A) (A) (A) (A) (A) (A) (A) (A) (A) (A) (A)
                 (A) (A) (A) (A) (A) (A) (A) (A) (A) (A) (A) (A)
                 (A) (A) (A) (A) (A) (A) (A) (A) (A) (A) (A) (A)
                 (A) (A) (A) (A) (A) (A) (A) (A) (A) (A) (A) (A)
                 (A) (A) (A) (A) (A) (A) (A) (A) (A) (A) (A) (A)
                 (A) (A)
       Virtual   (A) (A) (A) (A) (A) (A) (A) (A) (A) (A) (A) (A)
                 (A) (A) (A) (A) (A) (A) (A) (A) (A) (A) (A) (A)
                 (A) (A) (A) (A) (A) (A) (A) (A) (A) (A) (A) (A)
                 (A) (A) (A) (A) (A) (A) (A) (A) (A) (A) (A) (A)
                 (A) (A) (A) (A) (A) (A) (A) (A) (A) (A) (A) (A)
                 (A) (A) (A) (A) (A) (A) (A) (A) (A) (A) (A) (A)
                 (A) (A) (A) (A) (A) (A) (A) (A) (A) (A) (A) (A)
                 (A) (A) (A) (A) (A) (A) (A) (A) (A) (A) (A) (A)
                 (A) (A) (A) (A) (A) (A) (A) (A) (A) (A) (A) (A)
                 (A) (A) (A) (A) (A) (A) (A) (A) (A) (A) (A) (A)
                 (A) (A) (A) (A) (A) (A) (A) (A) (A) (A) (A) (A)
                 (A) (A) (A) (A) (A) (A) (A) (A) (A) (A) (A) (A)
                 (A) (A) (A) (A) (A) (A) (A) (A) (A) (A) (A) (A)
                 (A) (A) (A) (A) (A) (A) (A) (A) (A) (A) (A) (A)
                 (A) (A) (A) (A) (A) (A) (A) (A) (A) (A) (A) (A)
                 (A) (A) (A) (A) (A) (A) (A) (A) (A) (A) (A) (A)
                 (A) (A) (A) (A) (A) (A) (A) (A) (A) (A) (A) (A)
                 (A) (A) (A) (A) (A) (A) (A)
 The electronic state of the initial guess is 1-A.
 Requested convergence on RMS density matrix=1.00D-08 within 128 cycles.
 Requested convergence on MAX density matrix=1.00D-06.
 Requested convergence on             energy=1.00D-06.
 No special actions if energy rises.
 Integral accuracy reduced to 1.0D-05 until final iterations.
 Initial convergence to 1.0D-05 achieved.  Increase integral accuracy.
 SCF Done:  E(RHF) =  -903.780742100     A.U. after   16 cycles
             Convg  =    0.8644D-08             -V/T =  2.0031

 **********************************************************************

            Population analysis using the SCF density.

 **********************************************************************

 Orbital symmetries:
 BldTbl:  Degeneracy threshold= 1.00D-02
       Occupied  (A) (A) (A) (A) (A) (A) (A) (A) (A) (A) (A) (A)
                 (A) (A) (A) (A) (A) (A) (A) (A) (A) (A) (A) (A)
                 (A) (A) (A) (A) (A) (A) (A) (A) (A) (A) (A) (A)
                 (A) (A) (A) (A) (A) (A) (A) (A) (A) (A) (A) (A)
                 (A) (A) (A) (A) (A) (A) (A) (A) (A) (A) (A) (A)
                 (A) (A)
       Virtual   (A) (A) (A) (A) (A) (A) (A) (A) (A) (A) (A) (A)
                 (A) (A) (A) (A) (A) (A) (A) (A) (A) (A) (A) (A)
                 (A) (A) (A) (A) (A) (A) (A) (A) (A) (A) (A) (A)
                 (A) (A) (A) (A) (A) (A) (A) (A) (A) (A) (A) (A)
                 (A) (A) (A) (A) (A) (A) (A) (A) (A) (A) (A) (A)
                 (A) (A) (A) (A) (A) (A) (A) (A) (A) (A) (A) (A)
                 (A) (A) (A) (A) (A) (A) (A) (A) (A) (A) (A) (A)
                 (A) (A) (A) (A) (A) (A) (A) (A) (A) (A) (A) (A)
                 (A) (A) (A) (A) (A) (A) (A) (A) (A) (A) (A) (A)
                 (A) (A) (A) (A) (A) (A) (A) (A) (A) (A) (A) (A)
                 (A) (A) (A) (A) (A) (A) (A) (A) (A) (A) (A) (A)
                 (A) (A) (A) (A) (A) (A) (A) (A) (A) (A) (A) (A)
                 (A) (A) (A) (A) (A) (A) (A) (A) (A) (A) (A) (A)
                 (A) (A) (A) (A) (A) (A) (A) (A) (A) (A) (A) (A)
                 (A) (A) (A) (A) (A) (A) (A) (A) (A) (A) (A) (A)
                 (A) (A) (A) (A) (A) (A) (A) (A) (A) (A) (A) (A)
                 (A) (A) (A) (A) (A) (A) (A) (A) (A) (A) (A) (A)
                 (A) (A) (A) (A) (A) (A) (A)
 The electronic state is 1-A.
 Alpha  occ. eigenvalues --  -26.35201 -26.34617 -26.34592 -20.65723 -15.62721
 Alpha  occ. eigenvalues --  -15.61877 -11.52432 -11.37324 -11.29192 -11.27392
 Alpha  occ. eigenvalues --  -11.26783 -11.26664 -11.26107 -11.26009 -11.25864
 Alpha  occ. eigenvalues --  -11.24927 -11.24377  -1.71672  -1.63334  -1.62916
 Alpha  occ. eigenvalues --   -1.48582  -1.19440  -1.18615  -1.15885  -1.09242
 Alpha  occ. eigenvalues --   -1.06068  -1.01321  -0.98220  -0.96545  -0.87488
 Alpha  occ. eigenvalues --   -0.86542  -0.81795  -0.81448  -0.80812  -0.78299
 Alpha  occ. eigenvalues --   -0.76378  -0.71263  -0.70522  -0.70281  -0.69077
 Alpha  occ. eigenvalues --   -0.67012  -0.66511  -0.66268  -0.65189  -0.64880
 Alpha  occ. eigenvalues --   -0.64059  -0.63532  -0.61330  -0.59279  -0.58738
 Alpha  occ. eigenvalues --   -0.58168  -0.55367  -0.54462  -0.53155  -0.52345
 Alpha  occ. eigenvalues --   -0.51858  -0.48941  -0.46206  -0.41932  -0.37117
 Alpha  occ. eigenvalues --   -0.36191  -0.31723
 Alpha virt. eigenvalues --    0.10110   0.10885   0.14171   0.17903   0.21594
 Alpha virt. eigenvalues --    0.23128   0.24562   0.25569   0.28390   0.30081
 Alpha virt. eigenvalues --    0.30783   0.30976   0.32059   0.34505   0.35197
 Alpha virt. eigenvalues --    0.36077   0.38317   0.38988   0.41437   0.42870
 Alpha virt. eigenvalues --    0.43531   0.44198   0.45907   0.46069   0.49510
 Alpha virt. eigenvalues --    0.51843   0.56181   0.60432   0.60584   0.62935
 Alpha virt. eigenvalues --    0.66634   0.67816   0.70040   0.70487   0.72111
 Alpha virt. eigenvalues --    0.72474   0.75002   0.76123   0.76819   0.77547
 Alpha virt. eigenvalues --    0.78592   0.79197   0.80031   0.81982   0.82443
 Alpha virt. eigenvalues --    0.82720   0.83040   0.86533   0.88227   0.88738
 Alpha virt. eigenvalues --    0.90480   0.91452   0.92313   0.92714   0.95415
 Alpha virt. eigenvalues --    0.95828   0.99078   0.99474   1.02220   1.04526
 Alpha virt. eigenvalues --    1.05327   1.06512   1.06672   1.07709   1.08527
 Alpha virt. eigenvalues --    1.09128   1.09685   1.11733   1.14239   1.15463
 Alpha virt. eigenvalues --    1.16122   1.16579   1.18657   1.18900   1.20504
 Alpha virt. eigenvalues --    1.20893   1.22578   1.23897   1.25740   1.27367
 Alpha virt. eigenvalues --    1.30486   1.32025   1.32992   1.34000   1.36604
 Alpha virt. eigenvalues --    1.37176   1.38311   1.40035   1.41127   1.44597
 Alpha virt. eigenvalues --    1.46470   1.47975   1.50100   1.53707   1.59780
 Alpha virt. eigenvalues --    1.60131   1.61849   1.62482   1.62815   1.63512
 Alpha virt. eigenvalues --    1.63590   1.65462   1.66399   1.67708   1.69213
 Alpha virt. eigenvalues --    1.70751   1.71731   1.74301   1.74708   1.75140
 Alpha virt. eigenvalues --    1.76115   1.78528   1.79248   1.82753   1.88157
 Alpha virt. eigenvalues --    1.91395   1.93020   1.95295   1.98075   1.99852
 Alpha virt. eigenvalues --    2.01733   2.04892   2.05233   2.07547   2.10770
 Alpha virt. eigenvalues --    2.11307   2.12323   2.13191   2.14188   2.15254
 Alpha virt. eigenvalues --    2.17307   2.18974   2.20603   2.23378   2.24291
 Alpha virt. eigenvalues --    2.24433   2.25623   2.26568   2.30533   2.31826
 Alpha virt. eigenvalues --    2.32257   2.33417   2.34550   2.36285   2.39391
 Alpha virt. eigenvalues --    2.40037   2.40849   2.41502   2.42737   2.43138
 Alpha virt. eigenvalues --    2.47685   2.48076   2.50847   2.51288   2.53673
 Alpha virt. eigenvalues --    2.55450   2.59640   2.60366   2.61793   2.62269
 Alpha virt. eigenvalues --    2.62571   2.64245   2.69278   2.69769   2.74707
 Alpha virt. eigenvalues --    2.76698   2.77783   2.78850   2.80942   2.83818
 Alpha virt. eigenvalues --    2.88703   2.91209   2.94407   2.95766   2.98760
 Alpha virt. eigenvalues --    3.03424   3.07757   3.08835   3.09079   3.10497
 Alpha virt. eigenvalues --    3.12447   3.13403   3.18832   3.20550   3.24050
 Alpha virt. eigenvalues --    3.33535   3.35988   3.37046   3.40614   3.44394
 Alpha virt. eigenvalues --    3.47398   3.53895   3.61034   3.80405   4.13405
 Alpha virt. eigenvalues --    4.29531   4.48378   4.49555   4.51530   4.54551
 Alpha virt. eigenvalues --    4.59700   4.66229   4.70298   4.72442   4.75720
 Alpha virt. eigenvalues --    4.79006   4.89491   5.02988   5.08108   5.21645
 Alpha virt. eigenvalues --    5.88293
          Condensed to atoms (all electrons):
              1          2          3          4          5          6
     1  C    4.905704   0.541217  -0.031106  -0.040274  -0.038066   0.526926
     2  C    0.541217   4.926295   0.507899  -0.046725  -0.030089  -0.046993
     3  C   -0.031106   0.507899   5.053043   0.523772  -0.042279  -0.034708
     4  C   -0.040274  -0.046725   0.523772   4.972140   0.520302  -0.033539
     5  C   -0.038066  -0.030089  -0.042279   0.520302   4.824438   0.561087
     6  C    0.526926  -0.046993  -0.034708  -0.033539   0.561087   4.919005
     7  C    0.003959   0.000713   0.005669  -0.038194   0.307357  -0.039931
     8  C    0.000157   0.000023  -0.000045   0.003330  -0.050757  -0.006348
     9  C   -0.000048  -0.000003  -0.000015   0.000079  -0.000946  -0.002164
    10  N    0.000000   0.000000   0.000000  -0.000085   0.007660  -0.000040
    11  O    0.000000   0.000000  -0.000001  -0.000034   0.005641  -0.000072
    12  C   -0.000070   0.000016   0.000305  -0.005021  -0.060967   0.002782
    13  N    0.000000  -0.000002  -0.000001  -0.000299   0.001649  -0.000106
    14  C    0.001607  -0.022951   0.405752  -0.025278   0.001794   0.000001
    15  F   -0.000022   0.002419  -0.041602   0.001490   0.000687   0.000001
    16  F    0.000228   0.004264  -0.053086   0.000630  -0.000006  -0.000007
    17  F    0.000229   0.004270  -0.052865   0.000688  -0.000016  -0.000006
    18  H   -0.000001   0.000004  -0.000018   0.000474   0.000420  -0.000016
    19  H    0.000000   0.000000   0.000000   0.000017  -0.000121   0.000003
    20  H   -0.000040  -0.000010  -0.000007   0.000173   0.001731   0.000276
    21  H    0.000107   0.000000   0.000000  -0.000035  -0.000788  -0.000245
    22  H    0.000001   0.000000   0.000000   0.000000  -0.000013   0.000120
    23  H   -0.026232   0.002535   0.000155   0.002389  -0.033689   0.378078
    24  H    0.000069   0.002283  -0.027052   0.373872  -0.033013   0.002248
    25  H   -0.025668   0.379434  -0.035956   0.002682   0.000210   0.002686
    26  H    0.381128  -0.027882   0.001860   0.000340   0.001660  -0.026093
              7          8          9         10         11         12
     1  C    0.003959   0.000157  -0.000048   0.000000   0.000000  -0.000070
     2  C    0.000713   0.000023  -0.000003   0.000000   0.000000   0.000016
     3  C    0.005669  -0.000045  -0.000015   0.000000  -0.000001   0.000305
     4  C   -0.038194   0.003330   0.000079  -0.000085  -0.000034  -0.005021
     5  C    0.307357  -0.050757  -0.000946   0.007660   0.005641  -0.060967
     6  C   -0.039931  -0.006348  -0.002164  -0.000040  -0.000072   0.002782
     7  C    5.112343   0.482107  -0.045073  -0.043398  -0.034182   0.605323
     8  C    0.482107   4.709624   0.326665   0.508290  -0.101390  -0.077140
     9  C   -0.045073   0.326665   5.118652  -0.050931   0.003793   0.003023
    10  N   -0.043398   0.508290  -0.050931   6.733386   0.148824  -0.105714
    11  O   -0.034182  -0.101390   0.003793   0.148824   8.281514   0.242081
    12  C    0.605323  -0.077140   0.003023  -0.105714   0.242081   4.469559
    13  N   -0.049695   0.001040  -0.000027   0.001963  -0.034240   0.301994
    14  C   -0.000160   0.000000   0.000000   0.000000   0.000000  -0.000006
    15  F   -0.000008   0.000000   0.000000   0.000000   0.000000   0.000000
    16  F    0.000000   0.000000   0.000000   0.000000   0.000000   0.000000
    17  F    0.000000   0.000000   0.000000   0.000000   0.000000   0.000000
    18  H   -0.004262  -0.000133   0.000000  -0.000030   0.000982  -0.025883
    19  H    0.002695   0.000025   0.000001  -0.000069   0.000144  -0.028781
    20  H   -0.001949  -0.038447   0.386648   0.000558  -0.000046  -0.000112
    21  H   -0.000337  -0.040865   0.387676   0.000336  -0.000061   0.000016
    22  H    0.002740  -0.036908   0.389846   0.001580  -0.000078   0.000047
    23  H    0.000467   0.001417  -0.000866  -0.000039  -0.000003   0.000117
    24  H   -0.000302   0.000240   0.000000  -0.000001  -0.000071   0.001654
    25  H    0.000001   0.000000   0.000000   0.000000   0.000000   0.000000
    26  H   -0.000117  -0.000004   0.000002   0.000000   0.000000   0.000001
             13         14         15         16         17         18
     1  C    0.000000   0.001607  -0.000022   0.000228   0.000229  -0.000001
     2  C   -0.000002  -0.022951   0.002419   0.004264   0.004270   0.000004
     3  C   -0.000001   0.405752  -0.041602  -0.053086  -0.052865  -0.000018
     4  C   -0.000299  -0.025278   0.001490   0.000630   0.000688   0.000474
     5  C    0.001649   0.001794   0.000687  -0.000006  -0.000016   0.000420
     6  C   -0.000106   0.000001   0.000001  -0.000007  -0.000006  -0.000016
     7  C   -0.049695  -0.000160  -0.000008   0.000000   0.000000  -0.004262
     8  C    0.001040   0.000000   0.000000   0.000000   0.000000  -0.000133
     9  C   -0.000027   0.000000   0.000000   0.000000   0.000000   0.000000
    10  N    0.001963   0.000000   0.000000   0.000000   0.000000  -0.000030
    11  O   -0.034240   0.000000   0.000000   0.000000   0.000000   0.000982
    12  C    0.301994  -0.000006   0.000000   0.000000   0.000000  -0.025883
    13  N    7.035069  -0.000001   0.000000   0.000000   0.000000   0.303559
    14  C   -0.000001   3.606634   0.274680   0.275393   0.274508   0.000001
    15  F    0.000000   0.274680   9.196750  -0.026412  -0.026400  -0.000018
    16  F    0.000000   0.275393  -0.026412   9.201944  -0.027444   0.000000
    17  F    0.000000   0.274508  -0.026400  -0.027444   9.201919   0.000000
    18  H    0.303559   0.000001  -0.000018   0.000000   0.000000   0.369939
    19  H    0.308781   0.000000   0.000000   0.000000   0.000000  -0.017569
    20  H   -0.000001   0.000000   0.000000   0.000000   0.000000   0.000000
    21  H    0.000000   0.000000   0.000000   0.000000   0.000000   0.000000
    22  H    0.000000   0.000000   0.000000   0.000000   0.000000   0.000000
    23  H   -0.000002   0.000004   0.000000   0.000000   0.000000   0.000000
    24  H    0.000418  -0.001821   0.006264   0.000093   0.000110   0.002416
    25  H    0.000000   0.000061   0.000038   0.000929   0.001055   0.000000
    26  H    0.000000  -0.000056   0.000000   0.000001   0.000001   0.000000
             19         20         21         22         23         24
     1  C    0.000000  -0.000040   0.000107   0.000001  -0.026232   0.000069
     2  C    0.000000  -0.000010   0.000000   0.000000   0.002535   0.002283
     3  C    0.000000  -0.000007   0.000000   0.000000   0.000155  -0.027052
     4  C    0.000017   0.000173  -0.000035   0.000000   0.002389   0.373872
     5  C   -0.000121   0.001731  -0.000788  -0.000013  -0.033689  -0.033013
     6  C    0.000003   0.000276  -0.000245   0.000120   0.378078   0.002248
     7  C    0.002695  -0.001949  -0.000337   0.002740   0.000467  -0.000302
     8  C    0.000025  -0.038447  -0.040865  -0.036908   0.001417   0.000240
     9  C    0.000001   0.386648   0.387676   0.389846  -0.000866   0.000000
    10  N   -0.000069   0.000558   0.000336   0.001580  -0.000039  -0.000001
    11  O    0.000144  -0.000046  -0.000061  -0.000078  -0.000003  -0.000071
    12  C   -0.028781  -0.000112   0.000016   0.000047   0.000117   0.001654
    13  N    0.308781  -0.000001   0.000000   0.000000  -0.000002   0.000418
    14  C    0.000000   0.000000   0.000000   0.000000   0.000004  -0.001821
    15  F    0.000000   0.000000   0.000000   0.000000   0.000000   0.006264
    16  F    0.000000   0.000000   0.000000   0.000000   0.000000   0.000093
    17  F    0.000000   0.000000   0.000000   0.000000   0.000000   0.000110
    18  H   -0.017569   0.000000   0.000000   0.000000   0.000000   0.002416
    19  H    0.360881   0.000000   0.000000   0.000000   0.000000   0.000023
    20  H    0.000000   0.504574  -0.026855  -0.020451  -0.000015  -0.000001
    21  H    0.000000  -0.026855   0.519826  -0.021194   0.000652   0.000000
    22  H    0.000000  -0.020451  -0.021194   0.469013   0.000015   0.000000
    23  H    0.000000  -0.000015   0.000652   0.000015   0.451510  -0.000094
    24  H    0.000023  -0.000001   0.000000   0.000000  -0.000094   0.444684
    25  H    0.000000   0.000000   0.000000   0.000000  -0.000103  -0.000112
    26  H    0.000000  -0.000001  -0.000002   0.000000  -0.000948   0.000010
             25         26
     1  C   -0.025668   0.381128
     2  C    0.379434  -0.027882
     3  C   -0.035956   0.001860
     4  C    0.002682   0.000340
     5  C    0.000210   0.001660
     6  C    0.002686  -0.026093
     7  C    0.000001  -0.000117
     8  C    0.000000  -0.000004
     9  C    0.000000   0.000002
    10  N    0.000000   0.000000
    11  O    0.000000   0.000000
    12  C    0.000000   0.000001
    13  N    0.000000   0.000000
    14  C    0.000061  -0.000056
    15  F    0.000038   0.000000
    16  F    0.000929   0.000001
    17  F    0.001055   0.000001
    18  H    0.000000   0.000000
    19  H    0.000000   0.000000
    20  H    0.000000  -0.000001
    21  H    0.000000  -0.000002
    22  H    0.000000   0.000000
    23  H   -0.000103  -0.000948
    24  H   -0.000112   0.000010
    25  H    0.448135  -0.001656
    26  H   -0.001656   0.449949
 Mulliken atomic charges:
              1
     1  C   -0.199803
     2  C   -0.196718
     3  C   -0.179714
     4  C   -0.212893
     5  C    0.056116
     6  C   -0.202946
     7  C   -0.265767
     8  C    0.319116
     9  C   -0.516311
    10  N   -0.202291
    11  O   -0.512801
    12  C    0.676775
    13  N   -0.870101
    14  C    1.209837
    15  F   -0.387866
    16  F   -0.376527
    17  F   -0.376048
    18  H    0.370139
    19  H    0.373971
    20  H    0.193975
    21  H    0.181770
    22  H    0.215283
    23  H    0.224650
    24  H    0.228083
    25  H    0.228265
    26  H    0.221806
 Sum of Mulliken atomic charges =   0.00000
 Mulliken charges with hydrogens summed into heavy atoms:
              1
     1  C    0.022003
     2  C    0.031547
     3  C   -0.179714
     4  C    0.015190
     5  C    0.056116
     6  C    0.021704
     7  C   -0.265767
     8  C    0.319116
     9  C    0.074716
    10  N   -0.202291
    11  O   -0.512801
    12  C    0.676775
    13  N   -0.125991
    14  C    1.209837
    15  F   -0.387866
    16  F   -0.376527
    17  F   -0.376048
 Sum of Mulliken charges with hydrogens summed into heavy atoms =   0.00000
 DipInt: DoE/N= T F RetVal/Mat= T F Init=T NMatP=  1 IDeriv=0 Min/MaxMlt=  0  4
 Entering OneElI...
 OneElI was handed    33361185 working-precision words.
 Multipole integrals L=0 to 4 MinM= 0 MaxM= 0.
 Requested accuracy = 0.1000D-12
 PrsmSu:  NPrtUS=   1 ThrOK=F IAlg=1 NPAlg=1 LenDen=           0.
 Prism:   IPart=     0 DynPar=F LinDyn=F Incr=          30.
 PRISM was handed    33073298 working-precision words and  3056 shell-pairs
 IPart=  0 NShTot=        3056 NBatch=          46 AvBLen=        66.4
 PrSmSu:  NxtVal=             31.
 Electronic moments (au):
       -124.00000000          0.44603313          0.46697743         -0.22501153
      -3195.18334523       -944.20770064       -377.37086585          0.29383400
          0.32388479         -1.29966343       -489.81250576       -236.24086664
        -50.22749877       1028.25224749       1409.06966204      -1908.44568099
       -166.77912100       -225.07766653        587.57608884       1085.46720196
    -134152.37211627     -17423.50298044      -2741.42267713       3523.52349565
       2314.23996089      -1386.77671292       -600.97311763       -345.16573717
       -253.23025491     -17835.48702969      -9771.94955573      -4218.02454686
      -2777.38954601        340.49114197        406.45052005
 Electronic spatial extent (au):  <R**2>=           4516.7619
 DipInt: DoE/N= F T RetVal/Mat= T F Init=T NMatP=  1 IDeriv=0 Min/MaxMlt=  0  4
 Nuclear    moments (au):
        124.00000000          0.00000000          0.00000000          0.00000000
       3107.30368785        885.06137572        302.47387798          0.00000000
          0.00000000          0.00000000        666.30004217        173.49843820
         82.17879862      -1033.40745538      -1384.85540460       1883.95480541
        192.65296650        228.08220550       -602.30026114      -1103.82762036
     122649.19885149      14704.65573952       1467.05534230      -3670.10582759
      -2065.75512815       1522.74314306        592.60496015        416.46966141
        218.78223835      15823.61329184       7823.99169806       3507.88061113
       2834.78535482       -304.83807041       -457.02912896
 Total      moments (au):
          0.00000000          0.44603313          0.46697743         -0.22501153
        -87.87965738        -59.14632492        -74.89698786          0.29383400
          0.32388479         -1.29966343        176.48753641        -62.74242843
         31.95129985         -5.15520789         24.21425744        -24.49087558
         25.87384551          3.00453896        -14.72417230        -18.36041839
     -11503.17326478      -2718.84724092      -1274.36733482       -146.58233194
        248.48483274        135.96643014         -8.36815748         71.30392424
        -34.44801655      -2011.87373786      -1947.95785767       -710.14393573
         57.39580881         35.65307155        -50.57860890
 Traceless Quadrup. (au):
        -13.90533399         14.82799847         -0.92266448          0.29383400
          0.32388479         -1.29966343
 Charge=              0.0000 electrons
 Dipole moment (field-independent basis, Debye):
    X=              1.1337    Y=              1.1869    Z=             -0.5719  Tot=              1.7382
 Quadrupole moment (field-independent basis, Debye-Ang):
   XX=           -118.2011   YY=            -79.5538   ZZ=           -100.7390
   XY=              0.3952   XZ=              0.4356   YZ=             -1.7481
 Traceless Quadrupole moment (field-independent basis, Debye-Ang):
   XX=            -18.7031   YY=             19.9442   ZZ=             -1.2410
   XY=              0.3952   XZ=              0.4356   YZ=             -1.7481
 Octapole moment (field-independent basis, Debye-Ang**2):
  XXX=            125.6170  YYY=            -44.6576  ZZZ=             22.7417  XYY=             -3.6693
  XXY=             17.2348  XXZ=            -17.4317  XZZ=             18.4160  YZZ=              2.1385
  YYZ=            -10.4801  XYZ=            -13.0682
 Hexadecapole moment (field-independent basis, Debye-Ang**3):
 XXXX=          -4332.6464 YYYY=          -1024.0482 ZZZZ=           -479.9878 XXXY=            -55.2099
 XXXZ=             93.5913 YYYX=             51.2115 YYYZ=             -3.1518 ZZZX=             26.8565
 ZZZY=            -12.9748 XXYY=           -757.7681 XXZZ=           -733.6943 YYZZ=           -267.4742
 XXYZ=             21.6180 YYXZ=             13.4287 ZZXY=            -19.0503
 N-N= 1.196214420669D+03 E-N=-4.519149798782D+03  KE= 9.009956807792D+02
 Entering OneElI...
 OneElI was handed    33211204 working-precision words.
 Calculate electrostatic properties
    NBasis =   273  MinDer = 0  MaxDer = 0
    NGrid  =    26  NMatD  =   1
 Requested accuracy = 0.1000D-12
 PrsmSu:  NPrtUS=   1 ThrOK=F IAlg=1 NPAlg=1 LenDen=           0.
 Prism:   IPart=     0 DynPar=F LinDyn=F Incr=         512.
 PRISM was handed    32946937 working-precision words and  2787 shell-pairs
 IPart=  0 NShTot=       72462 NBatch=        2787 AvBLen=        26.0
 PrSmSu:  NxtVal=            513.
 --------------------------------------------------------
       Center         ----      EFG at Nuclei      ----
                      3XX-RR        3YY-RR        3ZZ-RR
 --------------------------------------------------------
     1   Atom        0.188468      0.052001     -0.240469
     2   Atom        0.165108      0.065971     -0.231079
     3   Atom        0.070141      0.082640     -0.152781
     4   Atom        0.180206      0.058539     -0.238745
     5   Atom        0.137063      0.087221     -0.224284
     6   Atom        0.172498      0.081206     -0.253703
     7   Atom        0.061419     -0.046067     -0.015352
     8   Atom        0.098439      0.139645     -0.238084
     9   Atom        0.073700     -0.088456      0.014756
    10   Atom        0.952579     -1.020304      0.067725
    11   Atom       -0.304276     -0.151254      0.455530
    12   Atom       -0.047708      0.235643     -0.187935
    13   Atom       -0.388631     -0.442342      0.830973
    14   Atom        0.210645     -0.062258     -0.148387
    15   Atom        1.049807     -1.779852      0.730045
    16   Atom        0.568231      0.098672     -0.666903
    17   Atom       -0.071387      1.270056     -1.198668
    18   Atom       -0.122760      0.067995      0.054765
    19   Atom       -0.032749     -0.099950      0.132699
    20   Atom       -0.088897      0.133883     -0.044986
    21   Atom        0.143410     -0.057364     -0.086047
    22   Atom       -0.184367      0.126453      0.057914
    23   Atom       -0.139473      0.020663      0.118810
    24   Atom        0.134690     -0.216761      0.082071
    25   Atom       -0.239601      0.083102      0.156499
    26   Atom        0.135088     -0.212526      0.077438
 --------------------------------------------------------
                        XY            XZ            YZ
 --------------------------------------------------------
     1   Atom        0.008060      0.033724     -0.192884
     2   Atom       -0.007596      0.043372     -0.199858
     3   Atom        0.106436     -0.023400     -0.139783
     4   Atom       -0.000483      0.028643     -0.191033
     5   Atom        0.006431      0.013859     -0.192390
     6   Atom        0.041448      0.016323     -0.196259
     7   Atom        0.015882     -0.021650      0.017341
     8   Atom        0.045317     -0.199007      0.205441
     9   Atom        0.015014     -0.006652     -0.054792
    10   Atom        0.158482     -0.247759     -0.604160
    11   Atom        0.751310      1.006754     -0.883785
    12   Atom        0.142356      0.007815      0.106806
    13   Atom        0.228644     -0.221453     -0.574917
    14   Atom       -0.281461      0.180483     -0.103889
    15   Atom       -1.217144      0.570407      1.486779
    16   Atom       -1.220863     -1.375797     -1.673080
    17   Atom        0.402915      2.114340     -0.632570
    18   Atom        0.075054     -0.139547      0.024280
    19   Atom       -0.148570     -0.001417     -0.008442
    20   Atom       -0.028700     -0.213664     -0.032179
    21   Atom       -0.034697      0.042218      0.207574
    22   Atom        0.058052      0.170711     -0.034052
    23   Atom        0.191246     -0.108625      0.083384
    24   Atom       -0.060576      0.022932      0.177220
    25   Atom       -0.154957      0.046333      0.031093
    26   Atom       -0.058782      0.027111      0.184699
 --------------------------------------------------------


 ---------------------------------------------------------------------------------
              Nuclear Quadrupole in Principal Axis System
 ---------------------------------------------------------------------------------

       Atom             a.u.   MegaHertz   Gauss  10(-4) cm-1        Axes

              Baa    -0.3385   -45.417   -16.206   -15.150 -0.0640  0.4431  0.8942
     1 C(13)  Bbb     0.1465    19.652     7.012     6.555  0.1728  0.8874 -0.4273
              Bcc     0.1920    25.765     9.193     8.594  0.9829 -0.1271  0.1333
 
              Baa    -0.3341   -44.829   -15.996   -14.953 -0.0708  0.4447  0.8929
     2 C(13)  Bbb     0.1408    18.897     6.743     6.303  0.6973  0.6621 -0.2745
              Bcc     0.1932    25.931     9.253     8.650  0.7132 -0.6032  0.3570
 
              Baa    -0.2200   -29.519   -10.533    -9.846 -0.0909  0.4438  0.8915
     3 C(13)  Bbb    -0.0026    -0.345    -0.123    -0.115  0.8129 -0.4841  0.3239
              Bcc     0.2225    29.863    10.656     9.961  0.5753  0.7541 -0.3167
 
              Baa    -0.3334   -44.742   -15.965   -14.924 -0.0497  0.4375  0.8978
     4 C(13)  Bbb     0.1470    19.731     7.041     6.582  0.3527  0.8487 -0.3941
              Bcc     0.1864    25.011     8.924     8.343  0.9344 -0.2971  0.1965
 
              Baa    -0.3166   -42.482   -15.159   -14.170 -0.0337  0.4303  0.9021
     5 C(13)  Bbb     0.1376    18.461     6.588     6.158  0.9994  0.0180  0.0287
              Bcc     0.1790    24.020     8.571     8.012 -0.0039  0.9025 -0.4307
 
              Baa    -0.3462   -46.462   -16.579   -15.498 -0.0621  0.4214  0.9047
     6 C(13)  Bbb     0.1424    19.102     6.816     6.372  0.6896 -0.6371  0.3441
              Bcc     0.2039    27.360     9.763     9.126  0.7215  0.6453 -0.2510
 
              Baa    -0.0586    -7.858    -2.804    -2.621 -0.1963  0.8720 -0.4484
     7 C(13)  Bbb    -0.0096    -1.294    -0.462    -0.432  0.1560  0.4792  0.8637
              Bcc     0.0682     9.152     3.266     3.053  0.9680  0.0996 -0.2302
 
              Baa    -0.4080   -54.747   -19.535   -18.262  0.3694 -0.3530  0.8596
     8 C(13)  Bbb     0.1596    21.423     7.644     7.146  0.8249  0.5506 -0.1283
              Bcc     0.2483    33.323    11.891    11.115 -0.4280  0.7565  0.4946
 
              Baa    -0.1128   -15.135    -5.401    -5.049 -0.0600  0.9183  0.3914
     9 C(13)  Bbb     0.0348     4.665     1.665     1.556  0.2900 -0.3591  0.8871
              Bcc     0.0780    10.470     3.736     3.493  0.9551  0.1667 -0.2448
 
              Baa    -1.2902   -49.759   -17.755   -16.598 -0.0201  0.9148  0.4034
    10 N(14)  Bbb     0.2213     8.534     3.045     2.847  0.3689 -0.3682  0.8534
              Bcc     1.0689    41.225    14.710    13.751  0.9292  0.1660 -0.3301
 
              Baa    -1.7841   129.099    46.066    43.063  0.6397 -0.5721 -0.5133
    11 O(17)  Bbb     0.5271   -38.141   -13.610   -12.722  0.6589  0.7520 -0.0170
              Bcc     1.2570   -90.958   -32.456   -30.340  0.3958 -0.3273  0.8580
 
              Baa    -0.2183   -29.294   -10.453    -9.771  0.1917 -0.2813  0.9403
    12 C(13)  Bbb    -0.0971   -13.035    -4.651    -4.348  0.9125 -0.3017 -0.2763
              Bcc     0.3154    42.329    15.104    14.119  0.3614  0.9110  0.1989
 
              Baa    -0.7254   -27.976    -9.982    -9.332 -0.4184  0.8697  0.2617
    13 N(14)  Bbb    -0.3829   -14.766    -5.269    -4.926  0.8880  0.3312  0.3189
              Bcc     1.1082    42.742    15.251    14.257 -0.1907 -0.3659  0.9109
 
              Baa    -0.2411   -32.359   -11.547   -10.794  0.5888  0.7469 -0.3091
    14 C(13)  Bbb    -0.2172   -29.150   -10.401    -9.723 -0.0880  0.4394  0.8940
              Bcc     0.4584    61.509    21.948    20.517  0.8035 -0.4991  0.3245
 
              Baa    -2.9251 -1469.044  -524.191  -490.020  0.3203  0.8590 -0.3994
    15 F(19)  Bbb     1.4205   713.406   254.561   237.967 -0.0483  0.4359  0.8987
              Bcc     1.5046   755.638   269.630   252.054  0.9461 -0.2686  0.1812
 
              Baa    -2.9578 -1485.506  -530.066  -495.512  0.4622  0.5607  0.6870
    16 F(19)  Bbb     1.3811   693.623   247.502   231.368 -0.4511 -0.5183  0.7265
              Bcc     1.5767   791.883   282.564   264.144  0.7634 -0.6457  0.0134
 
              Baa    -2.9553 -1484.242  -529.614  -495.090 -0.5979  0.1741  0.7824
    17 F(19)  Bbb     1.3781   692.113   246.963   230.864  0.3756  0.9232  0.0816
              Bcc     1.5772   792.129   282.651   264.226  0.7081 -0.3427  0.6174
 
              Baa    -0.2203  -117.516   -41.933   -39.199  0.8516 -0.2601  0.4551
    18 H(1)   Bbb     0.0845    45.059    16.078    15.030  0.0804  0.9227  0.3770
              Bcc     0.1358    72.457    25.854    24.169 -0.5180 -0.2845  0.8067
 
              Baa    -0.2188  -116.758   -41.662   -38.946  0.6239  0.7812  0.0213
    19 H(1)   Bbb     0.0856    45.676    16.298    15.236  0.7795 -0.6202 -0.0877
              Bcc     0.1332    71.082    25.364    23.710  0.0553 -0.0713  0.9959
 
              Baa    -0.2861  -152.653   -54.470   -50.919  0.7378  0.1015  0.6673
    20 H(1)   Bbb     0.1364    72.768    25.965    24.273 -0.3214  0.9222  0.2150
              Bcc     0.1497    79.885    28.505    26.647 -0.5936 -0.3731  0.7131
 
              Baa    -0.2867  -152.964   -54.581   -51.023 -0.1258 -0.6761  0.7260
    21 H(1)   Bbb     0.1356    72.336    25.811    24.129 -0.2234  0.7323  0.6433
              Bcc     0.1511    80.628    28.770    26.895  0.9666  0.0813  0.2432
 
              Baa    -0.2836  -151.299   -53.987   -50.468  0.8761 -0.1618 -0.4541
    22 H(1)   Bbb     0.1362    72.663    25.928    24.238  0.2909  0.9286  0.2305
              Bcc     0.1474    78.635    28.059    26.230  0.3844 -0.3340  0.8606
 
              Baa    -0.3103  -165.540   -59.069   -55.218  0.7898 -0.5329  0.3035
    23 H(1)   Bbb     0.1438    76.705    27.370    25.586  0.6132  0.6771 -0.4069
              Bcc     0.1665    88.835    31.699    29.632  0.0113  0.5075  0.8616
 
              Baa    -0.3086  -164.634   -58.746   -54.916  0.1442  0.8979 -0.4158
    24 H(1)   Bbb     0.1431    76.338    27.239    25.464  0.9665 -0.0377  0.2538
              Bcc     0.1655    88.296    31.506    29.452 -0.2122  0.4385  0.8733
 
              Baa    -0.3084  -164.534   -58.710   -54.882  0.9202  0.3735 -0.1167
    25 H(1)   Bbb     0.1398    74.579    26.612    24.877 -0.3850  0.8108 -0.4409
              Bcc     0.1686    89.955    32.098    30.006 -0.0700  0.4506  0.8900
 
              Baa    -0.3117  -166.321   -59.347   -55.479  0.1434  0.8902 -0.4325
    26 H(1)   Bbb     0.1444    77.038    27.489    25.697  0.9880 -0.1037  0.1141
              Bcc     0.1673    89.283    31.858    29.782 -0.0568  0.4437  0.8944
 

 ---------------------------------------------------------------------------------

 No NMR shielding tensors so no spin-rotation constants.
 Leave Link  601 at Wed Nov 29 16:20:33 2017, MaxMem=   33554432 cpu:       0.3
 Merz-Kollman atomic radii used.
 Atom Element Radius
    1     6    1.50
    2     6    1.50
    3     6    1.50
    4     6    1.50
    5     6    1.50
    6     6    1.50
    7     6    1.50
    8     6    1.50
    9     6    1.50
   10     7    1.50
   11     8    1.40
   12     6    1.50
   13     7    1.50
   14     6    1.50
   15     9    1.35
   16     9    1.35
   17     9    1.35
   18     1    1.20
   19     1    1.20
   20     1    1.20
   21     1    1.20
   22     1    1.20
   23     1    1.20
   24     1    1.20
   25     1    1.20
   26     1    1.20
 Generate VDW surfaces: Layer= 4 Dens= 6 Start= 1.400 Inc= 0.200

 **********************************************************************

            Electrostatic Properties Using The SCF Density

 **********************************************************************

       Atomic Center    1 is at   0.923332  2.250112 -1.155086
       Atomic Center    2 is at   1.999197  1.510522 -0.706992
       Atomic Center    3 is at   1.848796  0.275061 -0.102661
       Atomic Center    4 is at   0.558420 -0.251655  0.041430
       Atomic Center    5 is at  -0.556671  0.488126 -0.412850
       Atomic Center    6 is at  -0.370678  1.740010 -0.997776
       Atomic Center    7 is at  -1.848215 -0.022935 -0.164689
       Atomic Center    8 is at  -2.859654  0.639864  0.558154
       Atomic Center    9 is at  -2.888354  2.038285  1.151032
       Atomic Center   10 is at  -3.941986 -0.124777  0.702347
       Atomic Center   11 is at  -3.644570 -1.345559  0.088994
       Atomic Center   12 is at  -2.374435 -1.291381 -0.418403
       Atomic Center   13 is at  -1.729448 -2.461778 -1.175320
       Atomic Center   14 is at   3.065328 -0.498433  0.396775
       Atomic Center   15 is at   2.659212 -1.674583  0.947620
       Atomic Center   16 is at   3.718578  0.239452  1.334453
       Atomic Center   17 is at   3.901414 -0.750761 -0.645118
       Atomic Center   18 is at  -0.796611 -2.754848 -0.671457
       Atomic Center   19 is at  -2.423497 -3.315280 -1.190001
       Atomic Center   20 is at  -2.076142  2.141557  1.885503
       Atomic Center   21 is at  -2.755114  2.779489  0.348923
       Atomic Center   22 is at  -3.855026  2.205986  1.647583
       Atomic Center   23 is at  -1.225374  2.317551 -1.330244
       Atomic Center   24 is at   0.416724 -1.223809  0.499968
       Atomic Center   25 is at   2.997861  1.912934 -0.833162
       Atomic Center   26 is at   1.078552  3.214341 -1.624454
      ESP Fit Center   27 is at   0.923332  2.250112  0.944914
      ESP Fit Center   28 is at   1.128177  2.604913  0.904563
      ESP Fit Center   29 is at   0.718487  2.604913  0.904563
      ESP Fit Center   30 is at   0.513643  2.250112  0.904563
      ESP Fit Center   31 is at   1.325150  2.946080  0.785061
      ESP Fit Center   32 is at   0.923332  3.053747  0.785061
      ESP Fit Center   33 is at   0.521515  2.946080  0.785061
      ESP Fit Center   34 is at   1.443374  3.294496  0.591001
      ESP Fit Center   35 is at   1.030981  3.411832  0.591001
      ESP Fit Center   36 is at   0.604050  3.372271  0.591001
      ESP Fit Center   37 is at   0.220240  3.181156  0.591001
      ESP Fit Center   38 is at   1.895751  3.372342  0.329839
      ESP Fit Center   39 is at   1.540192  3.600846  0.329839
      ESP Fit Center   40 is at   1.134659  3.719921  0.329839
      ESP Fit Center   41 is at   0.712005  3.719921  0.329839
      ESP Fit Center   42 is at   0.306472  3.600846  0.329839
      ESP Fit Center   43 is at  -0.049086  3.372342  0.329839
      ESP Fit Center   44 is at   1.915222  3.687112  0.011612
      ESP Fit Center   45 is at   1.542503  3.882731  0.011612
      ESP Fit Center   46 is at   1.133800  3.983467  0.011612
      ESP Fit Center   47 is at   0.712865  3.983467  0.011612
      ESP Fit Center   48 is at   0.304162  3.882731  0.011612
      ESP Fit Center   49 is at  -0.068558  3.687112  0.011612
      ESP Fit Center   50 is at   2.179357  3.728818 -0.351450
      ESP Fit Center   51 is at   0.205210  4.052463 -0.351450
      ESP Fit Center   52 is at  -0.165453  3.855950 -0.351450
      ESP Fit Center   53 is at  -0.337391  3.878832 -0.745396
      ESP Fit Center   54 is at   0.712865  0.516756 -2.321783
      ESP Fit Center   55 is at   2.408256  2.250112 -2.640010
      ESP Fit Center   56 is at   2.348107  2.668463 -2.640010
      ESP Fit Center   57 is at  -0.325866  3.052922 -2.640010
      ESP Fit Center   58 is at   0.712005  0.780302 -2.640010
      ESP Fit Center   59 is at   1.134659  0.780302 -2.640010
      ESP Fit Center   60 is at   2.090030  2.250112 -2.901172
      ESP Fit Center   61 is at  -0.068614  2.864299 -2.901172
      ESP Fit Center   62 is at   0.604050  1.127952 -2.901172
      ESP Fit Center   63 is at   1.030981  1.088391 -2.901172
      ESP Fit Center   64 is at   1.443374  1.205727 -2.901172
      ESP Fit Center   65 is at   1.785532  1.464113 -2.901172
      ESP Fit Center   66 is at   2.011245  1.828652 -2.901172
      ESP Fit Center   67 is at   1.726967  2.250112 -3.095233
      ESP Fit Center   68 is at   0.227364  2.651929 -3.095233
      ESP Fit Center   69 is at   0.119697  2.250112 -3.095233
      ESP Fit Center   70 is at   0.227364  1.848294 -3.095233
      ESP Fit Center   71 is at   0.521515  1.554143 -3.095233
      ESP Fit Center   72 is at   0.923332  1.446476 -3.095233
      ESP Fit Center   73 is at   1.325150  1.554143 -3.095233
      ESP Fit Center   74 is at   1.619301  1.848294 -3.095233
      ESP Fit Center   75 is at   1.333022  2.250112 -3.214735
      ESP Fit Center   76 is at   1.128177  2.604913 -3.214735
      ESP Fit Center   77 is at   0.718487  2.604913 -3.214735
      ESP Fit Center   78 is at   0.513643  2.250112 -3.214735
      ESP Fit Center   79 is at   0.718487  1.895310 -3.214735
      ESP Fit Center   80 is at   1.128177  1.895310 -3.214735
      ESP Fit Center   81 is at   0.923332  2.250112 -3.255086
      ESP Fit Center   82 is at   2.204042  1.865323  1.352657
      ESP Fit Center   83 is at   1.794352  1.865323  1.352657
      ESP Fit Center   84 is at   2.695165  1.912339  1.233155
      ESP Fit Center   85 is at   2.401014  2.206490  1.233155
      ESP Fit Center   86 is at   1.999197  2.314157  1.233155
      ESP Fit Center   87 is at   1.597379  2.206490  1.233155
      ESP Fit Center   88 is at   1.303228  1.912339  1.233155
      ESP Fit Center   89 is at   2.861397  2.296521  1.039095
      ESP Fit Center   90 is at   2.519239  2.554907  1.039095
      ESP Fit Center   91 is at   2.106846  2.672242  1.039095
      ESP Fit Center   92 is at   1.679915  2.632681  1.039095
      ESP Fit Center   93 is at   1.296104  2.441566  1.039095
      ESP Fit Center   94 is at   1.007251  2.124709  1.039095
      ESP Fit Center   95 is at   2.971615  2.632753  0.777933
      ESP Fit Center   96 is at   2.616057  2.861256  0.777933
      ESP Fit Center   97 is at   2.210524  2.980332  0.777933
      ESP Fit Center   98 is at   1.787870  2.980332  0.777933
      ESP Fit Center   99 is at   2.618368  3.143141  0.459706
      ESP Fit Center  100 is at   2.209664  3.243877  0.459706
      ESP Fit Center  101 is at   2.518241  3.379950  0.096644
      ESP Fit Center  102 is at   3.545279  0.699075 -1.873689
      ESP Fit Center  103 is at   1.026778  0.388291 -2.191916
      ESP Fit Center  104 is at   1.382337  0.159787 -2.191916
      ESP Fit Center  105 is at   1.787870  0.040712 -2.191916
      ESP Fit Center  106 is at   2.210524  0.040712 -2.191916
      ESP Fit Center  107 is at   2.616057  0.159787 -2.191916
      ESP Fit Center  108 is at   2.971615  0.388291 -2.191916
      ESP Fit Center  109 is at   3.248395  0.707711 -2.191916
      ESP Fit Center  110 is at   1.296104  0.579477 -2.453078
      ESP Fit Center  111 is at   1.679915  0.388362 -2.453078
      ESP Fit Center  112 is at   2.106846  0.348801 -2.453078
      ESP Fit Center  113 is at   2.519239  0.466137 -2.453078
      ESP Fit Center  114 is at   2.861397  0.724523 -2.453078
      ESP Fit Center  115 is at   3.087110  1.089062 -2.453078
      ESP Fit Center  116 is at   2.802832  1.510522 -2.647139
      ESP Fit Center  117 is at   2.695165  1.912339 -2.647139
      ESP Fit Center  118 is at   2.401014  2.206490 -2.647139
      ESP Fit Center  119 is at   1.597379  0.814553 -2.647139
      ESP Fit Center  120 is at   1.999197  0.706887 -2.647139
      ESP Fit Center  121 is at   2.401014  0.814553 -2.647139
      ESP Fit Center  122 is at   2.695165  1.108704 -2.647139
      ESP Fit Center  123 is at   2.408886  1.510522 -2.766641
      ESP Fit Center  124 is at   1.794352  1.155720 -2.766641
      ESP Fit Center  125 is at   2.204042  1.155720 -2.766641
      ESP Fit Center  126 is at   1.999197  1.510522 -2.806992
      ESP Fit Center  127 is at   1.848796  0.275061  1.997339
      ESP Fit Center  128 is at   1.643951  0.629863  1.956989
      ESP Fit Center  129 is at   1.439106  0.275061  1.956989
      ESP Fit Center  130 is at   1.643951 -0.079741  1.956989
      ESP Fit Center  131 is at   1.848796  1.078696  1.837486
      ESP Fit Center  132 is at   1.446978  0.971029  1.837486
      ESP Fit Center  133 is at   1.152827  0.676879  1.837486
      ESP Fit Center  134 is at   1.956445  1.436782  1.643426
      ESP Fit Center  135 is at   1.529514  1.397221  1.643426
      ESP Fit Center  136 is at   1.145703  1.206106  1.643426
      ESP Fit Center  137 is at   2.060122  1.744871  1.382264
      ESP Fit Center  138 is at   1.637469  1.744871  1.382264
      ESP Fit Center  139 is at   1.231936  1.625796  1.382264
      ESP Fit Center  140 is at   0.876377  1.397292  1.382264
      ESP Fit Center  141 is at   0.856906  1.712062  1.064037
      ESP Fit Center  142 is at   2.059263 -1.458294 -1.269358
      ESP Fit Center  143 is at   1.637469 -1.194749 -1.587585
      ESP Fit Center  144 is at   2.060122 -1.194749 -1.587585
      ESP Fit Center  145 is at   1.529514 -0.847099 -1.848747
      ESP Fit Center  146 is at   1.956445 -0.886660 -1.848747
      ESP Fit Center  147 is at   2.368837 -0.769324 -1.848747
      ESP Fit Center  148 is at   1.152827 -0.126757 -2.042808
      ESP Fit Center  149 is at   1.446978 -0.420908 -2.042808
      ESP Fit Center  150 is at   1.848796 -0.528574 -2.042808
      ESP Fit Center  151 is at   2.250613 -0.420908 -2.042808
      ESP Fit Center  152 is at   2.544764 -0.126757 -2.042808
      ESP Fit Center  153 is at   1.643951 -0.079741 -2.162310
      ESP Fit Center  154 is at   2.053640 -0.079741 -2.162310
      ESP Fit Center  155 is at   0.558420 -0.251655  2.141430
      ESP Fit Center  156 is at   0.968110 -0.251655  2.101080
      ESP Fit Center  157 is at   0.763265  0.103146  2.101080
      ESP Fit Center  158 is at   0.353575  0.103146  2.101080
      ESP Fit Center  159 is at   0.148730 -0.251655  2.101080
      ESP Fit Center  160 is at   0.353575 -0.606457  2.101080
      ESP Fit Center  161 is at   0.763265 -0.606457  2.101080
      ESP Fit Center  162 is at   1.362055 -0.251655  1.981577
      ESP Fit Center  163 is at   1.254389  0.150162  1.981577
      ESP Fit Center  164 is at   0.960238  0.444313  1.981577
      ESP Fit Center  165 is at   0.558420  0.551980  1.981577
      ESP Fit Center  166 is at   0.156602  0.444313  1.981577
      ESP Fit Center  167 is at  -0.137548  0.150162  1.981577
      ESP Fit Center  168 is at  -0.245215 -0.251655  1.981577
      ESP Fit Center  169 is at  -0.137548 -0.653473  1.981577
      ESP Fit Center  170 is at   1.254389 -0.653473  1.981577
      ESP Fit Center  171 is at   1.078462  0.792730  1.787517
      ESP Fit Center  172 is at   0.666069  0.910065  1.787517
      ESP Fit Center  173 is at   0.239138  0.870504  1.787517
      ESP Fit Center  174 is at  -0.144672  0.679389  1.787517
      ESP Fit Center  175 is at  -0.433526  0.362532  1.787517
      ESP Fit Center  176 is at  -0.588412 -0.037275  1.787517
      ESP Fit Center  177 is at  -0.588412 -0.466035  1.787517
      ESP Fit Center  178 is at   0.769747  1.218155  1.526355
      ESP Fit Center  179 is at   0.347093  1.218155  1.526355
      ESP Fit Center  180 is at   0.347953  1.481700  1.208128
      ESP Fit Center  181 is at   1.077464 -2.121084 -0.762205
      ESP Fit Center  182 is at   1.467201 -1.965798 -0.762205
      ESP Fit Center  183 is at   1.814445 -1.730362 -0.762205
      ESP Fit Center  184 is at   0.768888 -1.985010 -1.125267
      ESP Fit Center  185 is at   1.177591 -1.884274 -1.125267
      ESP Fit Center  186 is at   1.550310 -1.688656 -1.125267
      ESP Fit Center  187 is at   0.347093 -1.721465 -1.443494
      ESP Fit Center  188 is at   0.769747 -1.721465 -1.443494
      ESP Fit Center  189 is at   1.175280 -1.602390 -1.443494
      ESP Fit Center  190 is at   1.530839 -1.373886 -1.443494
      ESP Fit Center  191 is at  -0.144672 -1.182700 -1.704656
      ESP Fit Center  192 is at   0.239138 -1.373815 -1.704656
      ESP Fit Center  193 is at   0.666069 -1.413376 -1.704656
      ESP Fit Center  194 is at   1.078462 -1.296040 -1.704656
      ESP Fit Center  195 is at   1.420620 -1.037654 -1.704656
      ESP Fit Center  196 is at   0.156602 -0.947624 -1.898717
      ESP Fit Center  197 is at   0.558420 -1.055290 -1.898717
      ESP Fit Center  198 is at   0.960238 -0.947624 -1.898717
      ESP Fit Center  199 is at   1.254389 -0.653473 -1.898717
      ESP Fit Center  200 is at   0.968110 -0.251655 -2.018219
      ESP Fit Center  201 is at   0.763265  0.103146 -2.018219
      ESP Fit Center  202 is at   0.353575 -0.606457 -2.018219
      ESP Fit Center  203 is at   0.763265 -0.606457 -2.018219
      ESP Fit Center  204 is at   0.558420 -0.251655 -2.058570
      ESP Fit Center  205 is at  -0.556671  0.488126  1.687150
      ESP Fit Center  206 is at  -0.351826  0.842928  1.646799
      ESP Fit Center  207 is at  -0.761515  0.842928  1.646799
      ESP Fit Center  208 is at  -0.761515  0.133325  1.646799
      ESP Fit Center  209 is at  -0.154853  1.184095  1.527297
      ESP Fit Center  210 is at  -0.556671  1.291762  1.527297
      ESP Fit Center  211 is at  -0.036629  1.532511  1.333236
      ESP Fit Center  212 is at  -0.449021  1.649847  1.333236
      ESP Fit Center  213 is at   0.415748  1.610357  1.072074
      ESP Fit Center  214 is at   0.060189  1.838861  1.072074
      ESP Fit Center  215 is at  -0.345344 -0.981683 -1.897774
      ESP Fit Center  216 is at  -1.259763 -0.442918 -2.158936
      ESP Fit Center  217 is at  -0.875953 -0.634033 -2.158936
      ESP Fit Center  218 is at  -0.449021 -0.673594 -2.158936
      ESP Fit Center  219 is at  -0.036629 -0.556258 -2.158936
      ESP Fit Center  220 is at   0.305529 -0.297873 -2.158936
      ESP Fit Center  221 is at   0.531242  0.066667 -2.158936
      ESP Fit Center  222 is at  -1.252639  0.086309 -2.352997
      ESP Fit Center  223 is at  -0.958488 -0.207842 -2.352997
      ESP Fit Center  224 is at  -0.556671 -0.315509 -2.352997
      ESP Fit Center  225 is at  -0.154853 -0.207842 -2.352997
      ESP Fit Center  226 is at   0.139298  0.086309 -2.352997
      ESP Fit Center  227 is at  -0.761515  0.133325 -2.472499
      ESP Fit Center  228 is at  -0.351826  0.133325 -2.472499
      ESP Fit Center  229 is at  -0.165834  2.094812  1.061873
      ESP Fit Center  230 is at  -0.575523  2.094812  1.061873
      ESP Fit Center  231 is at   0.325290  2.141828  0.942371
      ESP Fit Center  232 is at   0.031139  2.435979  0.942371
      ESP Fit Center  233 is at  -0.370678  2.543646  0.942371
      ESP Fit Center  234 is at   0.149363  2.784395  0.748310
      ESP Fit Center  235 is at  -0.263029  2.901731  0.748310
      ESP Fit Center  236 is at  -0.689960  2.862170  0.748310
      ESP Fit Center  237 is at  -0.159352  3.209820  0.487148
      ESP Fit Center  238 is at  -0.582005  3.209820  0.487148
      ESP Fit Center  239 is at  -0.987538  3.090745  0.487148
      ESP Fit Center  240 is at  -0.160211  3.473366  0.168921
      ESP Fit Center  241 is at  -0.581146  3.473366  0.168921
      ESP Fit Center  242 is at  -0.989849  3.372629  0.168921
      ESP Fit Center  243 is at  -0.684559  3.654599 -0.194141
      ESP Fit Center  244 is at  -0.474998  3.797016 -0.588086
      ESP Fit Center  245 is at  -1.916761  0.928564 -2.164474
      ESP Fit Center  246 is at   0.621212  0.303010 -2.164474
      ESP Fit Center  247 is at  -1.619876  0.937200 -2.482700
      ESP Fit Center  248 is at  -1.343097  0.617779 -2.482700
      ESP Fit Center  249 is at  -0.987538  0.389276 -2.482700
      ESP Fit Center  250 is at  -0.159352  0.270201 -2.482700
      ESP Fit Center  251 is at   0.246181  0.389276 -2.482700
      ESP Fit Center  252 is at   0.601740  0.617779 -2.482700
      ESP Fit Center  253 is at  -1.362625  1.125823 -2.743862
      ESP Fit Center  254 is at  -1.073771  0.808966 -2.743862
      ESP Fit Center  255 is at  -0.689960  0.617851 -2.743862
      ESP Fit Center  256 is at  -0.263029  0.578290 -2.743862
      ESP Fit Center  257 is at   0.149363  0.695626 -2.743862
      ESP Fit Center  258 is at  -0.370678  2.543646 -2.937923
      ESP Fit Center  259 is at  -1.174314  1.740010 -2.937923
      ESP Fit Center  260 is at  -1.066647  1.338193 -2.937923
      ESP Fit Center  261 is at  -0.772496  1.044042 -2.937923
      ESP Fit Center  262 is at  -0.370678  0.936375 -2.937923
      ESP Fit Center  263 is at   0.031139  1.044042 -2.937923
[...]
 7084 Fit       0.019910
 7085 Fit       0.019289
 7086 Fit       0.018402
 7087 Fit       0.017248
 7088 Fit       0.014963
 7089 Fit       0.013203
 7090 Fit       0.011001
 7091 Fit       0.008415
 7092 Fit       0.017746
 7093 Fit       0.017227
 7094 Fit       0.016297
 7095 Fit       0.013351
 7096 Fit       0.011435
 7097 Fit       0.015184
 7098 Fit       0.014608
 7099 Fit       0.010458
 7100 Fit       0.013735
 7101 Fit       0.015771
 7102 Fit       0.006075
 7103 Fit       0.010956
 7104 Fit       0.014290
 7105 Fit       0.016529
 7106 Fit       0.017992
 7107 Fit       0.004890
 7108 Fit       0.010173
 7109 Fit       0.013902
 7110 Fit       0.016534
 7111 Fit       0.018367
 7112 Fit       0.019624
 7113 Fit       0.020505
 7114 Fit       0.004158
 7115 Fit       0.009482
 7116 Fit       0.013369
 7117 Fit       0.016229
 7118 Fit       0.018325
 7119 Fit       0.019844
 7120 Fit       0.020941
 7121 Fit       0.021768
 7122 Fit       0.022493
 7123 Fit       0.004788
 7124 Fit       0.009869
 7125 Fit       0.013668
 7126 Fit       0.016530
 7127 Fit       0.018680
 7128 Fit       0.020281
 7129 Fit       0.021471
 7130 Fit       0.022381
 7131 Fit       0.023160
 7132 Fit       0.005519
 7133 Fit       0.010170
 7134 Fit       0.013762
 7135 Fit       0.016545
 7136 Fit       0.018694
 7137 Fit       0.020342
 7138 Fit       0.021601
 7139 Fit       0.022582
 7140 Fit       0.023408
 7141 Fit       0.024235
 7142 Fit       0.004047
 7143 Fit       0.008712
 7144 Fit       0.012426
 7145 Fit       0.015380
 7146 Fit       0.017720
 7147 Fit       0.019558
 7148 Fit       0.020994
 7149 Fit       0.022122
 7150 Fit       0.023042
 7151 Fit       0.023881
 7152 Fit       0.024804
 7153 Fit       0.003189
 7154 Fit       0.007761
 7155 Fit       0.011507
 7156 Fit       0.014549
 7157 Fit       0.016993
 7158 Fit       0.018936
 7159 Fit       0.020468
 7160 Fit       0.021680
 7161 Fit       0.022672
 7162 Fit       0.023572
 7163 Fit       0.024552
 7164 Fit      -0.000131
 7165 Fit       0.004643
 7166 Fit       0.008735
 7167 Fit       0.012154
 7168 Fit       0.014958
 7169 Fit       0.017218
 7170 Fit       0.019015
 7171 Fit       0.020433
 7172 Fit       0.021572
 7173 Fit       0.022553
 7174 Fit       0.023543
 7175 Fit       0.005379
 7176 Fit       0.009098
 7177 Fit       0.012242
 7178 Fit       0.014832
 7179 Fit       0.016920
 7180 Fit       0.018575
 7181 Fit       0.019885
 7182 Fit       0.020960
 7183 Fit       0.021944
 7184 Fit       0.005839
 7185 Fit       0.009436
 7186 Fit       0.012427
 7187 Fit       0.014835
 7188 Fit       0.016719
 7189 Fit       0.018172
 7190 Fit       0.019318
 7191 Fit       0.009247
 7192 Fit       0.012063
 7193 Fit       0.014231
 7194 Fit       0.015837
 7195 Fit       0.003657
 7196 Fit       0.004255
 7197 Fit       0.004438
 7198 Fit       0.003889
 7199 Fit       0.002979
 7200 Fit       0.002690
 7201 Fit       0.003453
 7202 Fit       0.004705
 7203 Fit       0.005035
 7204 Fit       0.005062
 7205 Fit       0.004757
 7206 Fit       0.004161
 7207 Fit       0.001491
 7208 Fit       0.002251
 7209 Fit       0.003272
 7210 Fit       0.004118
 7211 Fit       0.004957
 7212 Fit       0.005314
 7213 Fit       0.005529
 7214 Fit       0.005551
 7215 Fit       0.005367
 7216 Fit       0.005001
 7217 Fit       0.000856
 7218 Fit       0.002041
 7219 Fit       0.003122
 7220 Fit       0.003927
 7221 Fit       0.004504
 7222 Fit       0.004975
 7223 Fit       0.005365
 7224 Fit       0.005689
 7225 Fit       0.005885
 7226 Fit       0.005919
 7227 Fit       0.005792
 7228 Fit       0.005528
 7229 Fit       0.000182
 7230 Fit       0.001669
 7231 Fit       0.002867
 7232 Fit       0.003677
 7233 Fit       0.004191
 7234 Fit       0.004585
 7235 Fit       0.004729
 7236 Fit       0.005178
 7237 Fit       0.005615
 7238 Fit       0.005958
 7239 Fit       0.006161
 7240 Fit       0.006212
 7241 Fit       0.006123
 7242 Fit       0.005924
 7243 Fit       0.001041
 7244 Fit       0.002500
 7245 Fit       0.003416
 7246 Fit       0.003874
 7247 Fit       0.004109
 7248 Fit       0.004359
 7249 Fit       0.004187
 7250 Fit       0.004720
 7251 Fit       0.005281
 7252 Fit       0.005778
 7253 Fit       0.006154
 7254 Fit       0.006389
 7255 Fit       0.006483
 7256 Fit       0.006456
 7257 Fit       0.002178
 7258 Fit       0.003273
 7259 Fit       0.003716
 7260 Fit       0.003730
 7261 Fit       0.003672
 7262 Fit       0.003806
 7263 Fit       0.003312
 7264 Fit       0.004003
 7265 Fit       0.004750
 7266 Fit       0.005442
 7267 Fit       0.006013
 7268 Fit       0.006431
 7269 Fit       0.006696
 7270 Fit       0.006823
 7271 Fit       0.003676
 7272 Fit       0.003684
 7273 Fit       0.003198
 7274 Fit       0.002806
 7275 Fit       0.002851
 7276 Fit       0.002036
 7277 Fit       0.002946
 7278 Fit       0.003924
 7279 Fit       0.004858
 7280 Fit       0.005676
 7281 Fit       0.006333
 7282 Fit       0.006820
 7283 Fit       0.001510
 7284 Fit       0.002801
 7285 Fit       0.004070
 7286 Fit       0.005228
 7287 Fit       0.006204
 7288 Fit       0.006977
 7289 Fit       0.003243
 7290 Fit       0.004930
 7291 Fit       0.008518
 7292 Fit       0.008642
 7293 Fit       0.008533
 7294 Fit       0.008225
 7295 Fit       0.007748
 7296 Fit       0.007131
 7297 Fit       0.008477
 7298 Fit       0.009133
 7299 Fit       0.009399
 7300 Fit       0.009365
 7301 Fit       0.009096
 7302 Fit       0.008635
 7303 Fit       0.008010
 7304 Fit       0.007240
 7305 Fit       0.006345
 7306 Fit       0.009279
 7307 Fit       0.010092
 7308 Fit       0.010391
 7309 Fit       0.010337
 7310 Fit       0.010028
 7311 Fit       0.009520
 7312 Fit       0.008845
 7313 Fit       0.008017
 7314 Fit       0.007045
 7315 Fit       0.005928
 7316 Fit       0.004658
 7317 Fit       0.010881
 7318 Fit       0.011550
 7319 Fit       0.011639
 7320 Fit       0.011370
 7321 Fit       0.010860
 7322 Fit       0.010167
 7323 Fit       0.009314
 7324 Fit       0.008308
 7325 Fit       0.007143
 7326 Fit       0.005804
 7327 Fit       0.004257
 7328 Fit       0.013312
 7329 Fit       0.012950
 7330 Fit       0.012312
 7331 Fit       0.011494
 7332 Fit       0.010529
 7333 Fit       0.009420
 7334 Fit       0.008155
 7335 Fit       0.006711
 7336 Fit       0.005049
 7337 Fit       0.003102
 7338 Fit       0.015122
 7339 Fit       0.014174
 7340 Fit       0.013111
 7341 Fit       0.011962
 7342 Fit       0.010717
 7343 Fit       0.009352
 7344 Fit       0.007833
 7345 Fit       0.006116
 7346 Fit       0.004142
 7347 Fit       0.001818
 7348 Fit       0.016190
 7349 Fit       0.014542
 7350 Fit       0.012963
 7351 Fit       0.011373
 7352 Fit       0.009704
 7353 Fit       0.007891
 7354 Fit       0.005871
 7355 Fit       0.003567
 7356 Fit       0.000890
 7357 Fit       0.016265
 7358 Fit       0.014077
 7359 Fit       0.012062
 7360 Fit       0.010059
 7361 Fit       0.007965
 7362 Fit       0.005706
 7363 Fit       0.003245
 7364 Fit       0.014611
 7365 Fit       0.012052
 7366 Fit       0.009639
 7367 Fit       0.007260
 7368 Fit       0.004964
 7369 Fit       0.013827
 7370 Fit       0.010848
 7371 Fit       0.008547
 7372 Fit       0.000742
 7373 Fit       0.002094
 7374 Fit       0.001457
 7375 Fit       0.000040
 7376 Fit      -0.000933
 7377 Fit       0.002826
 7378 Fit       0.002077
 7379 Fit       0.000896
 7380 Fit      -0.000665
 7381 Fit      -0.002229
 7382 Fit      -0.003081
 7383 Fit      -0.002592
 7384 Fit       0.003799
 7385 Fit       0.003293
 7386 Fit       0.002589
 7387 Fit       0.001588
 7388 Fit       0.000232
 7389 Fit      -0.001456
 7390 Fit      -0.003312
 7391 Fit      -0.004976
 7392 Fit      -0.005917
 7393 Fit      -0.005658
 7394 Fit       0.004033
 7395 Fit       0.003461
 7396 Fit       0.002704
 7397 Fit       0.001681
 7398 Fit       0.000325
 7399 Fit      -0.001396
 7400 Fit      -0.003455
 7401 Fit      -0.005715
 7402 Fit      -0.007880
 7403 Fit      -0.009464
 7404 Fit      -0.009904
 7405 Fit       0.004516
 7406 Fit       0.003952
 7407 Fit       0.003254
 7408 Fit       0.002345
 7409 Fit       0.001149
 7410 Fit      -0.000402
 7411 Fit      -0.002361
 7412 Fit      -0.004746
 7413 Fit      -0.007506
 7414 Fit      -0.010457
 7415 Fit      -0.013207
 7416 Fit       0.004342
 7417 Fit       0.003665
 7418 Fit       0.002830
 7419 Fit       0.001767
 7420 Fit       0.000402
 7421 Fit      -0.001340
 7422 Fit      -0.003531
 7423 Fit      -0.006233
 7424 Fit      -0.009473
 7425 Fit      -0.013196
 7426 Fit       0.004258
 7427 Fit       0.003453
 7428 Fit       0.002478
 7429 Fit       0.001255
 7430 Fit      -0.000304
 7431 Fit      -0.002296
 7432 Fit      -0.004827
 7433 Fit      -0.008018
 7434 Fit      -0.011990
 7435 Fit      -0.016832
 7436 Fit       0.004027
 7437 Fit       0.003076
 7438 Fit       0.001948
 7439 Fit       0.000555
 7440 Fit      -0.001203
 7441 Fit      -0.003442
 7442 Fit      -0.006309
 7443 Fit      -0.009984
 7444 Fit      -0.014703
 7445 Fit       0.004372
 7446 Fit       0.003302
 7447 Fit       0.002104
 7448 Fit       0.000681
 7449 Fit      -0.001076
 7450 Fit      -0.003299
 7451 Fit      -0.006154
 7452 Fit      -0.009862
 7453 Fit      -0.014740
 7454 Fit       0.002706
 7455 Fit       0.001201
 7456 Fit      -0.000585
 7457 Fit      -0.002806
 7458 Fit      -0.005657
 7459 Fit      -0.009402
 7460 Fit      -0.014435
 7461 Fit       0.001264
 7462 Fit      -0.000772
 7463 Fit      -0.003264
 7464 Fit      -0.006472
 7465 Fit      -0.010756
 7466 Fit      -0.003559
 7467 Fit      -0.007084
 7468 Fit      -0.011819
 7469 Fit       0.015255
 7470 Fit       0.015510
 7471 Fit       0.015887
 7472 Fit       0.016445
 7473 Fit       0.016328
 7474 Fit       0.016069
 7475 Fit       0.016030
 7476 Fit       0.016039
 7477 Fit       0.015916
 7478 Fit       0.017848
 7479 Fit       0.016760
 7480 Fit       0.016154
 7481 Fit       0.015754
 7482 Fit       0.015353
 7483 Fit       0.014769
 7484 Fit       0.013830
 7485 Fit       0.012389
 7486 Fit       0.010358
 7487 Fit       0.007724
 7488 Fit       0.017613
 7489 Fit       0.016486
 7490 Fit       0.015727
 7491 Fit       0.015070
 7492 Fit       0.014314
 7493 Fit       0.013296
 7494 Fit       0.011887
 7495 Fit       0.010011
 7496 Fit       0.007658
 7497 Fit       0.004897
 7498 Fit       0.001879
 7499 Fit       0.018392
 7500 Fit       0.016831
 7501 Fit       0.015775
 7502 Fit       0.014919
 7503 Fit       0.014048
 7504 Fit       0.013000
 7505 Fit       0.011659
 7506 Fit       0.009958
 7507 Fit       0.007895
 7508 Fit       0.005540
 7509 Fit       0.003038
 7510 Fit       0.000585
 7511 Fit       0.017773
 7512 Fit       0.016250
 7513 Fit       0.015120
 7514 Fit       0.014122
 7515 Fit       0.013052
 7516 Fit       0.011764
 7517 Fit       0.010175
 7518 Fit       0.008277
 7519 Fit       0.006143
 7520 Fit       0.003927
 7521 Fit       0.001836
 7522 Fit       0.016531
 7523 Fit       0.015270
 7524 Fit       0.014173
 7525 Fit       0.013084
 7526 Fit       0.011848
 7527 Fit       0.010366
 7528 Fit       0.008619
 7529 Fit       0.006683
 7530 Fit       0.004722
 7531 Fit       0.002955
 7532 Fit       0.014614
 7533 Fit       0.013675
 7534 Fit       0.012594
 7535 Fit       0.011317
 7536 Fit       0.009778
 7537 Fit       0.008008
 7538 Fit       0.006163
 7539 Fit       0.004490
 7540 Fit       0.012461
 7541 Fit       0.011496
 7542 Fit       0.010044
 7543 Fit       0.008251
 7544 Fit       0.006423
 7545 Fit       0.010130
 7546 Fit       0.008402
 7547 Fit       0.002824
 7548 Fit       0.002613
 7549 Fit       0.003931
 7550 Fit       0.004468
 7551 Fit       0.003133
 7552 Fit       0.003543
 7553 Fit       0.004335
 7554 Fit       0.005326
 7555 Fit       0.005953
 7556 Fit       0.005448
 7557 Fit       0.003533
 7558 Fit       0.004013
 7559 Fit       0.005165
 7560 Fit       0.006522
 7561 Fit       0.007384
 7562 Fit       0.007328
 7563 Fit       0.006213
 7564 Fit       0.004023
 7565 Fit       0.003435
 7566 Fit       0.005307
 7567 Fit       0.007252
 7568 Fit       0.008621
 7569 Fit       0.009116
 7570 Fit       0.008661
 7571 Fit       0.007288
 7572 Fit       0.005030
 7573 Fit       0.007156
 7574 Fit       0.009361
 7575 Fit       0.010620
 7576 Fit       0.010892
 7577 Fit       0.010231
 7578 Fit       0.008722
 7579 Fit       0.006444
 7580 Fit       0.010091
 7581 Fit       0.012029
 7582 Fit       0.012918
 7583 Fit       0.012836
 7584 Fit       0.011880
 7585 Fit       0.010144
 7586 Fit       0.007709
 7587 Fit       0.015377
 7588 Fit       0.015421
 7589 Fit       0.014496
 7590 Fit       0.012708
 7591 Fit       0.010137
 7592 Fit       0.018619
 7593 Fit       0.017698
 7594 Fit       0.015811
 7595 Fit       0.013074
 7596 Fit       0.020443
 7597 Fit       0.017631
 7598 Fit       0.013930
 7599 Fit       0.021898
 7600 Fit       0.017230
 7601 Fit       0.004203
 7602 Fit       0.005386
 7603 Fit       0.004523
 7604 Fit       0.006149
 7605 Fit       0.007027
 7606 Fit       0.005039
 7607 Fit       0.006854
 7608 Fit       0.008010
 7609 Fit       0.008676
 7610 Fit       0.008946
 7611 Fit       0.006009
 7612 Fit       0.007825
 7613 Fit       0.009072
 7614 Fit       0.009903
 7615 Fit       0.010424
 7616 Fit       0.010697
 7617 Fit       0.007026
 7618 Fit       0.008744
 7619 Fit       0.010005
 7620 Fit       0.010936
 7621 Fit       0.011636
 7622 Fit       0.012193
 7623 Fit       0.012673
 7624 Fit       0.006057
 7625 Fit       0.008104
 7626 Fit       0.009684
 7627 Fit       0.010910
 7628 Fit       0.011885
 7629 Fit       0.012705
 7630 Fit       0.013470
 7631 Fit       0.014293
 7632 Fit       0.007409
 7633 Fit       0.009230
 7634 Fit       0.010690
 7635 Fit       0.011879
 7636 Fit       0.012891
 7637 Fit       0.013835
 7638 Fit       0.014847
 7639 Fit       0.016109
 7640 Fit       0.006641
 7641 Fit       0.008600
 7642 Fit       0.010238
 7643 Fit       0.011606
 7644 Fit       0.012781
 7645 Fit       0.013863
 7646 Fit       0.014993
 7647 Fit       0.016373
 7648 Fit       0.007861
 7649 Fit       0.009544
 7650 Fit       0.011017
 7651 Fit       0.012306
 7652 Fit       0.013483
 7653 Fit       0.014659
 7654 Fit       0.016009
 7655 Fit       0.017813
 7656 Fit       0.006002
 7657 Fit       0.008787
 7658 Fit       0.010335
 7659 Fit       0.011744
 7660 Fit       0.013040
 7661 Fit       0.014314
 7662 Fit       0.015737
 7663 Fit       0.017584
 7664 Fit       0.005633
 7665 Fit       0.007162
 7666 Fit       0.009426
 7667 Fit       0.010878
 7668 Fit       0.012254
 7669 Fit       0.013585
 7670 Fit       0.014994
 7671 Fit       0.016690
 7672 Fit       0.006654
 7673 Fit       0.007964
 7674 Fit       0.009797
 7675 Fit       0.011253
 7676 Fit       0.012666
 7677 Fit       0.014081
 7678 Fit       0.015601
 7679 Fit       0.008367
 7680 Fit       0.009922
 7681 Fit       0.011508
 7682 Fit       0.012971
 7683 Fit       0.011705
 7684 Fit       0.011418
 7685 Fit       0.011303
 7686 Fit       0.011317
 7687 Fit       0.011464
 7688 Fit       0.013921
 7689 Fit       0.013224
 7690 Fit       0.012853
 7691 Fit       0.012683
 7692 Fit       0.012656
 7693 Fit       0.012760
 7694 Fit       0.013030
 7695 Fit       0.013544
 7696 Fit       0.016433
 7697 Fit       0.015140
 7698 Fit       0.014405
 7699 Fit       0.013998
 7700 Fit       0.013794
 7701 Fit       0.013728
 7702 Fit       0.013779
 7703 Fit       0.013960
 7704 Fit       0.014324
 7705 Fit       0.014969
 7706 Fit       0.016061
 7707 Fit       0.016904
 7708 Fit       0.015811
 7709 Fit       0.015169
 7710 Fit       0.014805
 7711 Fit       0.014618
 7712 Fit       0.014551
 7713 Fit       0.014583
 7714 Fit       0.014721
 7715 Fit       0.015004
 7716 Fit       0.015506
 7717 Fit       0.016353
 7718 Fit       0.017759
 7719 Fit       0.017944
 7720 Fit       0.016719
 7721 Fit       0.015962
 7722 Fit       0.015515
 7723 Fit       0.015268
 7724 Fit       0.015151
 7725 Fit       0.015128
 7726 Fit       0.015187
 7727 Fit       0.015344
 7728 Fit       0.015644
 7729 Fit       0.016167
 7730 Fit       0.017042
 7731 Fit       0.018482
 7732 Fit       0.016939
 7733 Fit       0.016279
 7734 Fit       0.015860
 7735 Fit       0.015618
 7736 Fit       0.015499
 7737 Fit       0.015461
 7738 Fit       0.015488
 7739 Fit       0.015583
 7740 Fit       0.015776
 7741 Fit       0.016120
 7742 Fit       0.016703
 7743 Fit       0.017650
 7744 Fit       0.016247
 7745 Fit       0.016004
 7746 Fit       0.015784
 7747 Fit       0.015640
 7748 Fit       0.015568
 7749 Fit       0.015550
 7750 Fit       0.015570
 7751 Fit       0.015626
 7752 Fit       0.015733
 7753 Fit       0.015923
 7754 Fit       0.016244
 7755 Fit       0.016754
 7756 Fit       0.017492
 7757 Fit       0.014522
 7758 Fit       0.014995
 7759 Fit       0.015182
 7760 Fit       0.015267
 7761 Fit       0.015327
 7762 Fit       0.015383
 7763 Fit       0.015436
 7764 Fit       0.015490
 7765 Fit       0.015560
 7766 Fit       0.015669
 7767 Fit       0.015839
 7768 Fit       0.016059
 7769 Fit       0.016216
 7770 Fit       0.013268
 7771 Fit       0.014053
 7772 Fit       0.014507
 7773 Fit       0.014783
 7774 Fit       0.014957
 7775 Fit       0.015063
 7776 Fit       0.015116
 7777 Fit       0.015127
 7778 Fit       0.015100
 7779 Fit       0.015007
 7780 Fit       0.014736
 7781 Fit       0.012391
 7782 Fit       0.013361
 7783 Fit       0.013957
 7784 Fit       0.014304
 7785 Fit       0.014473
 7786 Fit       0.014494
 7787 Fit       0.014368
 7788 Fit       0.014048
 7789 Fit       0.013393
 7790 Fit       0.011788
 7791 Fit       0.012880
 7792 Fit       0.013472
 7793 Fit       0.013654
 7794 Fit       0.013455
 7795 Fit       0.012795
 7796 Fit       0.011514
 7797 Fit       0.011402
 7798 Fit       0.012441
 7799 Fit       0.012396
 7800 Fit       0.011230
 7801 Fit       0.011211
 -----------------------------------------------------------------
 Leave Link  602 at Wed Nov 29 17:44:41 2017, MaxMem=   33554432 cpu:       3.1

 Test job not archived.
 1\1\GINC-NODE44\FOpt\RHF\6-31G(d)\C11H9F3N2O1\DAVE\29-Nov-2017\0\\#HF/
 6-31G* SCF=tight Test Pop=MK iop(6/33=2) iop(6/42=6) opt\\remark line 
 goes here\\0,1\C,3.057112439,10.3100194217,-9.6368490499\C,3.384839239
 8,9.9944080851,-10.9482429404\C,2.4430111853,9.3785355883,-11.74893274
 34\C,1.1851641368,9.0700953441,-11.2456267184\C,0.8415086577,9.3917631
 952,-9.9401056125\C,1.8006200406,10.0205031563,-9.143005173\C,-0.50878
 23129,9.0854330987,-9.4159154152\C,-0.8974286874,8.2128267251,-8.34871
 69121\C,-0.0122741605,7.3688682757,-7.485754845\N,-2.1696973789,8.1869
 873095,-8.181714564\O,-2.6876733087,9.0563940169,-9.1334708706\C,-1.70
 75236662,9.5670892075,-9.8374945716\N,-2.0503880828,10.4852071939,-10.
 7785252323\C,2.7533156035,9.0048629824,-13.1711626622\F,1.8609395453,9
 .5123395939,-14.0115761728\F,2.7324105727,7.6921181023,-13.3488941774\
 F,3.9427328939,9.4335532411,-13.5564450002\H,-1.3699535113,10.68122818
 89,-11.4778381847\H,-2.9895150168,10.4403688613,-11.1081091298\H,0.609
 1916187,6.7241276641,-8.0972264973\H,0.6446492935,7.9883729657,-6.8852
 908723\H,-0.614706007,6.7589880022,-6.8265527067\H,1.5482293826,10.292
 2511123,-8.134088287\H,0.4722401155,8.5636352318,-11.8715087395\H,4.35
 78039023,10.2282878807,-11.3349006126\H,3.7821735052,10.7937355552,-9.
 0080523088\\Version=EM64L-G09RevC.01\State=1-A\HF=-903.8431881\RMSD=9.
 045e-09\RMSF=1.165e-05\Dipole=0.6966616,0.637241,-0.0404749\Quadrupole
 =-1.0482762,2.2122396,-1.1639634,-1.2955009,14.4162443,-0.7536415\PG=C
 01 [X(C11H9F3N2O1)]\\@


      SCIENCE SANS CONSCIENCE N'EST QUE RUINE DE L'AME.

                                                  -- RABELAIS
 Job cpu time:  0 days  1 hours 25 minutes 32.0 seconds.
 File lengths (MBytes):  RWF=     59 Int=      0 D2E=      0 Chk=      7 Scr=      1
 Normal termination of Gaussian 09 at Wed Nov 29 17:44:42 2017.
