 Entering Gaussian System, Link 0=/share/apps/g03/g03
 Initial command:
 /share/apps//g03/l1.exe /state/partition1/mmpbsa.12/Gau-21618.inp -scrdir=/state/partition1/mmpbsa.12/
 Entering Link 1 = /share/apps//g03/l1.exe PID=     21619.
  
 Copyright (c) 1988,1990,1992,1993,1995,1998,2003,2004, Gaussian, Inc.
                  All Rights Reserved.
  
 This is the Gaussian(R) 03 program.  It is based on the
 the Gaussian(R) 98 system (copyright 1998, Gaussian, Inc.),
 the Gaussian(R) 94 system (copyright 1995, Gaussian, Inc.),
 the Gaussian 92(TM) system (copyright 1992, Gaussian, Inc.),
 the Gaussian 90(TM) system (copyright 1990, Gaussian, Inc.),
 the Gaussian 88(TM) system (copyright 1988, Gaussian, Inc.),
 the Gaussian 86(TM) system (copyright 1986, Carnegie Mellon
 University), and the Gaussian 82(TM) system (copyright 1983,
 Carnegie Mellon University). Gaussian is a federally registered
 trademark of Gaussian, Inc.
  
 This software contains proprietary and confidential information,
 including trade secrets, belonging to Gaussian, Inc.
  
 This software is provided under written license and may be
 used, copied, transmitted, or stored only in accord with that
 written license.
  
 The following legend is applicable only to US Government
 contracts under FAR:
  
                    RESTRICTED RIGHTS LEGEND
  
 Use, reproduction and disclosure by the US Government is
 subject to restrictions as set forth in subparagraphs (a)
 and (c) of the Commercial Computer Software - Restricted
 Rights clause in FAR 52.227-19.
  
 Gaussian, Inc.
 340 Quinnipiac St., Bldg. 40, Wallingford CT 06492
  
  
 ---------------------------------------------------------------
 Warning -- This program may not be used in any manner that
 competes with the business of Gaussian, Inc. or will provide
 assistance to any competitor of Gaussian, Inc.  The licensee
 of this program is prohibited from giving any competitor of
 Gaussian, Inc. access to this program.  By using this program,
 the user acknowledges that Gaussian, Inc. is engaged in the
 business of creating and licensing software in the field of
 computational chemistry and represents and warrants to the
 licensee that it is not a competitor of Gaussian, Inc. and that
 it will not use this program in any manner prohibited above.
 ---------------------------------------------------------------
  

 Cite this work as:
 Gaussian 03, Revision D.02,
 M. J. Frisch, G. W. Trucks, H. B. Schlegel, G. E. Scuseria, 
 M. A. Robb, J. R. Cheeseman, J. A. Montgomery, Jr., T. Vreven, 
 K. N. Kudin, J. C. Burant, J. M. Millam, S. S. Iyengar, J. Tomasi, 
 V. Barone, B. Mennucci, M. Cossi, G. Scalmani, N. Rega, 
 G. A. Petersson, H. Nakatsuji, M. Hada, M. Ehara, K. Toyota, 
 R. Fukuda, J. Hasegawa, M. Ishida, T. Nakajima, Y. Honda, O. Kitao, 
 H. Nakai, M. Klene, X. Li, J. E. Knox, H. P. Hratchian, J. B. Cross, 
 V. Bakken, C. Adamo, J. Jaramillo, R. Gomperts, R. E. Stratmann, 
 O. Yazyev, A. J. Austin, R. Cammi, C. Pomelli, J. W. Ochterski, 
 P. Y. Ayala, K. Morokuma, G. A. Voth, P. Salvador, J. J. Dannenberg, 
 V. G. Zakrzewski, S. Dapprich, A. D. Daniels, M. C. Strain, 
 O. Farkas, D. K. Malick, A. D. Rabuck, K. Raghavachari, 
 J. B. Foresman, J. V. Ortiz, Q. Cui, A. G. Baboul, S. Clifford, 
 J. Cioslowski, B. B. Stefanov, G. Liu, A. Liashenko, P. Piskorz, 
 I. Komaromi, R. L. Martin, D. J. Fox, T. Keith, M. A. Al-Laham, 
 C. Y. Peng, A. Nanayakkara, M. Challacombe, P. M. W. Gill, 
 B. Johnson, W. Chen, M. W. Wong, C. Gonzalez, and J. A. Pople, 
 Gaussian, Inc., Wallingford CT, 2004.
 
 ******************************************
 Gaussian 03:  AM64L-G03RevD.02  1-Mar-2006
                 8-Jun-2016 
 ******************************************
 %chk=molecule
 ------------------------------------------------------------
 #HF/6-31G* SCF=tight Test Pop=MK iop(6/33=2) iop(6/42=6) opt
 ------------------------------------------------------------
 1/18=20,38=1/1,3;
 2/9=110,17=6,18=5,40=1/2;
 3/5=1,6=6,7=1,11=9,16=1,25=1,30=1/1,2,3;
 4//1;
 5/5=2,32=2,38=5/2;
 6/7=2,8=2,9=2,10=2,15=8,20=1,28=1,33=2,42=6/1,2;
 7//1,2,3,16;
 1/18=20/3(3);
 2/9=110/2;
 6/7=2,8=2,9=2,10=2,15=8,19=2,20=1,28=1,33=2,42=6/1,2;
 99//99;
 2/9=110/2;
 3/5=1,6=6,7=1,11=9,16=1,25=1,30=1/1,2,3;
 4/5=5,16=3/1;
 5/5=2,32=2,38=5/2;
 7//1,2,3,16;
 1/18=20/3(-5);
 2/9=110/2;
 6/7=2,8=2,9=2,10=2,15=8,19=2,20=1,28=1,33=2,42=6/1,2;
 99/9=1/99;
 ---------------------
 remark line goes here
 ---------------------
 Symbolic Z-matrix:
 Charge =  0 Multiplicity = 1
 C                     5.362     10.852   -6.761 
 C                     4.013     10.48    -7.366 
 O                     4.216     10.401   -8.8 
 C                     3.131     10.015   -9.514 
 C                     3.38      9.779    -10.851 
 C                     2.39      9.375    -11.729 
 C                     1.084     9.219    -11.246 
 C                     0.807     9.458    -9.881 
 C                     1.833     9.843    -9.019 
 C                    -0.495     9.197    -9.404 
 C                    -0.816     8.299    -8.367 
 C                     0.088     7.485    -7.457 
 N                    -2.134     8.198    -8.195 
 O                    -2.72      9.024    -9.159 
 C                    -1.732     9.613    -9.901 
 C                    -2.023     10.599   -11.042 
 C                     2.873     9.149    -13.183 
 O                     1.995     9.57     -14.207 
 C                     3.196     7.682    -13.374 
 H                     2.268     7.093    -13.329 
 H                     3.675     7.536    -14.354 
 H                     3.879     7.35     -12.579 
 H                     2.385     9.387    -15.054 
 H                     3.802     9.725    -13.304 
 H                    -1.591     11.581   -10.797 
 H                    -1.575     10.224   -11.974 
 H                    -3.111     10.699   -11.171 
 H                     0.707     6.809    -8.065 
 H                     0.738     8.163    -6.884 
 H                    -0.527     6.894    -6.763 
 H                     1.627     10.009   -7.968 
 H                     0.289     8.916    -11.918 
 H                     4.388     9.915    -11.226 
 H                     3.265     11.251   -7.129 
 H                     3.675     9.509    -6.975 
 H                     6.102     10.078   -7.012 
 H                     5.692     11.82    -7.166 
 H                     5.265     10.925   -5.667 
 

 GradGradGradGradGradGradGradGradGradGradGradGradGradGradGradGradGradGrad
 Berny optimization.
 Initialization pass.
                           ----------------------------
                           !    Initial Parameters    !
                           ! (Angstroms and Degrees)  !
 --------------------------                            --------------------------
 ! Name  Definition              Value          Derivative Info.                !
 --------------------------------------------------------------------------------
 ! R1    R(1,2)                  1.5245         estimate D2E/DX2                !
 ! R2    R(1,36)                 1.0999         estimate D2E/DX2                !
 ! R3    R(1,37)                 1.1            estimate D2E/DX2                !
 ! R4    R(1,38)                 1.1007         estimate D2E/DX2                !
 ! R5    R(2,3)                  1.4505         estimate D2E/DX2                !
 ! R6    R(2,34)                 1.1001         estimate D2E/DX2                !
 ! R7    R(2,35)                 1.1            estimate D2E/DX2                !
 ! R8    R(3,4)                  1.355          estimate D2E/DX2                !
 ! R9    R(4,5)                  1.3803         estimate D2E/DX2                !
 ! R10   R(4,9)                  1.3998         estimate D2E/DX2                !
 ! R11   R(5,6)                  1.3835         estimate D2E/DX2                !
 ! R12   R(5,33)                 1.0841         estimate D2E/DX2                !
 ! R13   R(6,7)                  1.4012         estimate D2E/DX2                !
 ! R14   R(6,17)                 1.5487         estimate D2E/DX2                !
 ! R15   R(7,8)                  1.4132         estimate D2E/DX2                !
 ! R16   R(7,32)                 1.0842         estimate D2E/DX2                !
 ! R17   R(8,9)                  1.3943         estimate D2E/DX2                !
 ! R18   R(8,10)                 1.411          estimate D2E/DX2                !
 ! R19   R(9,31)                 1.0838         estimate D2E/DX2                !
 ! R20   R(10,11)                1.4088         estimate D2E/DX2                !
 ! R21   R(10,15)                1.3965         estimate D2E/DX2                !
 ! R22   R(11,12)                1.5192         estimate D2E/DX2                !
 ! R23   R(11,13)                1.333          estimate D2E/DX2                !
 ! R24   R(12,28)                1.0999         estimate D2E/DX2                !
 ! R25   R(12,29)                1.1002         estimate D2E/DX2                !
 ! R26   R(12,30)                1.0996         estimate D2E/DX2                !
 ! R27   R(13,14)                1.3982         estimate D2E/DX2                !
 ! R28   R(14,15)                1.3688         estimate D2E/DX2                !
 ! R29   R(15,16)                1.5358         estimate D2E/DX2                !
 ! R30   R(16,25)                1.1004         estimate D2E/DX2                !
 ! R31   R(16,26)                1.1            estimate D2E/DX2                !
 ! R32   R(16,27)                1.1002         estimate D2E/DX2                !
 ! R33   R(17,18)                1.413          estimate D2E/DX2                !
 ! R34   R(17,19)                1.5142         estimate D2E/DX2                !
 ! R35   R(17,24)                1.0998         estimate D2E/DX2                !
 ! R36   R(18,23)                0.9503         estimate D2E/DX2                !
 ! R37   R(19,20)                1.1001         estimate D2E/DX2                !
 ! R38   R(19,21)                1.1005         estimate D2E/DX2                !
 ! R39   R(19,22)                1.0994         estimate D2E/DX2                !
 ! A1    A(2,1,36)             109.4551         estimate D2E/DX2                !
 ! A2    A(2,1,37)             109.5168         estimate D2E/DX2                !
 ! A3    A(2,1,38)             109.4282         estimate D2E/DX2                !
 ! A4    A(36,1,37)            109.4765         estimate D2E/DX2                !
 ! A5    A(36,1,38)            109.4378         estimate D2E/DX2                !
 ! A6    A(37,1,38)            109.5128         estimate D2E/DX2                !
 ! A7    A(1,2,3)              106.367          estimate D2E/DX2                !
 ! A8    A(1,2,34)             110.1915         estimate D2E/DX2                !
 ! A9    A(1,2,35)             110.257          estimate D2E/DX2                !
 ! A10   A(3,2,34)             110.2637         estimate D2E/DX2                !
 ! A11   A(3,2,35)             110.2645         estimate D2E/DX2                !
 ! A12   A(34,2,35)            109.4613         estimate D2E/DX2                !
 ! A13   A(2,3,4)              115.1133         estimate D2E/DX2                !
 ! A14   A(3,4,5)              114.498          estimate D2E/DX2                !
 ! A15   A(3,4,9)              126.2406         estimate D2E/DX2                !
 ! A16   A(5,4,9)              119.2614         estimate D2E/DX2                !
 ! A17   A(4,5,6)              122.38           estimate D2E/DX2                !
 ! A18   A(4,5,33)             118.7739         estimate D2E/DX2                !
 ! A19   A(6,5,33)             118.8461         estimate D2E/DX2                !
 ! A20   A(5,6,7)              118.7317         estimate D2E/DX2                !
 ! A21   A(5,6,17)             114.5347         estimate D2E/DX2                !
 ! A22   A(7,6,17)             126.7324         estimate D2E/DX2                !
 ! A23   A(6,7,8)              119.7906         estimate D2E/DX2                !
 ! A24   A(6,7,32)             120.0616         estimate D2E/DX2                !
 ! A25   A(8,7,32)             120.1478         estimate D2E/DX2                !
 ! A26   A(7,8,9)              119.9757         estimate D2E/DX2                !
 ! A27   A(7,8,10)             118.4328         estimate D2E/DX2                !
 ! A28   A(9,8,10)             121.4069         estimate D2E/DX2                !
 ! A29   A(4,9,8)              119.8457         estimate D2E/DX2                !
 ! A30   A(4,9,31)             120.0237         estimate D2E/DX2                !
 ! A31   A(8,9,31)             120.1305         estimate D2E/DX2                !
 ! A32   A(8,10,11)            125.2395         estimate D2E/DX2                !
 ! A33   A(8,10,15)            129.9376         estimate D2E/DX2                !
 ! A34   A(11,10,15)           104.4781         estimate D2E/DX2                !
 ! A35   A(10,11,12)           130.3053         estimate D2E/DX2                !
 ! A36   A(10,11,13)           111.6265         estimate D2E/DX2                !
 ! A37   A(12,11,13)           118.0648         estimate D2E/DX2                !
 ! A38   A(11,12,28)           109.4557         estimate D2E/DX2                !
 ! A39   A(11,12,29)           109.4707         estimate D2E/DX2                !
 ! A40   A(11,12,30)           109.4646         estimate D2E/DX2                !
 ! A41   A(28,12,29)           109.5203         estimate D2E/DX2                !
 ! A42   A(28,12,30)           109.4694         estimate D2E/DX2                !
 ! A43   A(29,12,30)           109.4466         estimate D2E/DX2                !
 ! A44   A(11,13,14)           106.3001         estimate D2E/DX2                !
 ! A45   A(13,14,15)           108.9918         estimate D2E/DX2                !
 ! A46   A(10,15,14)           108.5574         estimate D2E/DX2                !
 ! A47   A(10,15,16)           128.5702         estimate D2E/DX2                !
 ! A48   A(14,15,16)           122.8345         estimate D2E/DX2                !
 ! A49   A(15,16,25)           109.458          estimate D2E/DX2                !
 ! A50   A(15,16,26)           109.4773         estimate D2E/DX2                !
 ! A51   A(15,16,27)           109.4414         estimate D2E/DX2                !
 ! A52   A(25,16,26)           109.4495         estimate D2E/DX2                !
 ! A53   A(25,16,27)           109.4643         estimate D2E/DX2                !
 ! A54   A(26,16,27)           109.5368         estimate D2E/DX2                !
 ! A55   A(6,17,18)            116.3019         estimate D2E/DX2                !
 ! A56   A(6,17,19)            109.0459         estimate D2E/DX2                !
 ! A57   A(6,17,24)            106.8769         estimate D2E/DX2                !
 ! A58   A(18,17,19)           109.2552         estimate D2E/DX2                !
 ! A59   A(18,17,24)           106.8041         estimate D2E/DX2                !
 ! A60   A(19,17,24)           108.2612         estimate D2E/DX2                !
 ! A61   A(17,18,23)           109.4837         estimate D2E/DX2                !
 ! A62   A(17,19,20)           109.4886         estimate D2E/DX2                !
 ! A63   A(17,19,21)           109.4929         estimate D2E/DX2                !
 ! A64   A(17,19,22)           109.5033         estimate D2E/DX2                !
 ! A65   A(20,19,21)           109.4246         estimate D2E/DX2                !
 ! A66   A(20,19,22)           109.4389         estimate D2E/DX2                !
 ! A67   A(21,19,22)           109.479          estimate D2E/DX2                !
 ! D1    D(36,1,2,3)           -60.0273         estimate D2E/DX2                !
 ! D2    D(36,1,2,34)         -179.5397         estimate D2E/DX2                !
 ! D3    D(36,1,2,35)           59.522          estimate D2E/DX2                !
 ! D4    D(37,1,2,3)            59.9973         estimate D2E/DX2                !
 ! D5    D(37,1,2,34)          -59.5152         estimate D2E/DX2                !
 ! D6    D(37,1,2,35)          179.5465         estimate D2E/DX2                !
 ! D7    D(38,1,2,3)          -179.9502         estimate D2E/DX2                !
 ! D8    D(38,1,2,34)           60.5373         estimate D2E/DX2                !
 ! D9    D(38,1,2,35)          -60.401          estimate D2E/DX2                !
 ! D10   D(1,2,3,4)            176.9795         estimate D2E/DX2                !
 ! D11   D(34,2,3,4)           -63.5551         estimate D2E/DX2                !
 ! D12   D(35,2,3,4)            57.4351         estimate D2E/DX2                !
 ! D13   D(2,3,4,5)           -172.1364         estimate D2E/DX2                !
 ! D14   D(2,3,4,9)              7.7664         estimate D2E/DX2                !
 ! D15   D(3,4,5,6)            179.8682         estimate D2E/DX2                !
 ! D16   D(3,4,5,33)            -0.1124         estimate D2E/DX2                !
 ! D17   D(9,4,5,6)             -0.0419         estimate D2E/DX2                !
 ! D18   D(9,4,5,33)           179.9774         estimate D2E/DX2                !
 ! D19   D(3,4,9,8)            179.087          estimate D2E/DX2                !
 ! D20   D(3,4,9,31)            -0.9095         estimate D2E/DX2                !
 ! D21   D(5,4,9,8)             -1.0144         estimate D2E/DX2                !
 ! D22   D(5,4,9,31)           178.9891         estimate D2E/DX2                !
 ! D23   D(4,5,6,7)              0.9482         estimate D2E/DX2                !
 ! D24   D(4,5,6,17)          -179.4104         estimate D2E/DX2                !
 ! D25   D(33,5,6,7)          -179.0712         estimate D2E/DX2                !
 ! D26   D(33,5,6,17)            0.5701         estimate D2E/DX2                !
 ! D27   D(5,6,7,8)             -0.7989         estimate D2E/DX2                !
 ! D28   D(5,6,7,32)           179.1927         estimate D2E/DX2                !
 ! D29   D(17,6,7,8)           179.6082         estimate D2E/DX2                !
 ! D30   D(17,6,7,32)           -0.4002         estimate D2E/DX2                !
 ! D31   D(5,6,17,18)         -140.9677         estimate D2E/DX2                !
 ! D32   D(5,6,17,19)           94.9904         estimate D2E/DX2                !
 ! D33   D(5,6,17,24)          -21.8272         estimate D2E/DX2                !
 ! D34   D(7,6,17,18)           38.6398         estimate D2E/DX2                !
 ! D35   D(7,6,17,19)          -85.402          estimate D2E/DX2                !
 ! D36   D(7,6,17,24)          157.7804         estimate D2E/DX2                !
 ! D37   D(6,7,8,9)             -0.2318         estimate D2E/DX2                !
 ! D38   D(6,7,8,10)          -175.3645         estimate D2E/DX2                !
 ! D39   D(32,7,8,9)           179.7766         estimate D2E/DX2                !
 ! D40   D(32,7,8,10)            4.6439         estimate D2E/DX2                !
 ! D41   D(7,8,9,4)              1.1448         estimate D2E/DX2                !
 ! D42   D(7,8,9,31)          -178.8586         estimate D2E/DX2                !
 ! D43   D(10,8,9,4)           176.1295         estimate D2E/DX2                !
 ! D44   D(10,8,9,31)           -3.874          estimate D2E/DX2                !
 ! D45   D(7,8,10,11)          121.2981         estimate D2E/DX2                !
 ! D46   D(7,8,10,15)          -50.8819         estimate D2E/DX2                !
 ! D47   D(9,8,10,11)          -53.7617         estimate D2E/DX2                !
 ! D48   D(9,8,10,15)          134.0584         estimate D2E/DX2                !
 ! D49   D(8,10,11,12)           4.7535         estimate D2E/DX2                !
 ! D50   D(8,10,11,13)        -175.9513         estimate D2E/DX2                !
 ! D51   D(15,10,11,12)        178.5681         estimate D2E/DX2                !
 ! D52   D(15,10,11,13)         -2.1368         estimate D2E/DX2                !
 ! D53   D(8,10,15,14)         175.4619         estimate D2E/DX2                !
 ! D54   D(8,10,15,16)          -6.7568         estimate D2E/DX2                !
 ! D55   D(11,10,15,14)          2.0525         estimate D2E/DX2                !
 ! D56   D(11,10,15,16)        179.8338         estimate D2E/DX2                !
 ! D57   D(10,11,12,28)        -60.0661         estimate D2E/DX2                !
 ! D58   D(10,11,12,29)         59.9841         estimate D2E/DX2                !
 ! D59   D(10,11,12,30)        179.9497         estimate D2E/DX2                !
 ! D60   D(13,11,12,28)        120.6765         estimate D2E/DX2                !
 ! D61   D(13,11,12,29)       -119.2733         estimate D2E/DX2                !
 ! D62   D(13,11,12,30)          0.6922         estimate D2E/DX2                !
 ! D63   D(10,11,13,14)          1.3573         estimate D2E/DX2                !
 ! D64   D(12,11,13,14)       -179.2519         estimate D2E/DX2                !
 ! D65   D(11,13,14,15)         -0.0046         estimate D2E/DX2                !
 ! D66   D(13,14,15,10)         -1.3352         estimate D2E/DX2                !
 ! D67   D(13,14,15,16)       -179.2708         estimate D2E/DX2                !
 ! D68   D(10,15,16,25)        -59.979          estimate D2E/DX2                !
 ! D69   D(10,15,16,26)         59.99           estimate D2E/DX2                !
 ! D70   D(10,15,16,27)       -179.9441         estimate D2E/DX2                !
 ! D71   D(14,15,16,25)        117.5176         estimate D2E/DX2                !
 ! D72   D(14,15,16,26)       -122.5134         estimate D2E/DX2                !
 ! D73   D(14,15,16,27)         -2.4476         estimate D2E/DX2                !
 ! D74   D(6,17,18,23)         179.9774         estimate D2E/DX2                !
 ! D75   D(19,17,18,23)        -56.0886         estimate D2E/DX2                !
 ! D76   D(24,17,18,23)         60.7973         estimate D2E/DX2                !
 ! D77   D(6,17,19,20)          68.1094         estimate D2E/DX2                !
 ! D78   D(6,17,19,21)        -171.9238         estimate D2E/DX2                !
 ! D79   D(6,17,19,22)         -51.8813         estimate D2E/DX2                !
 ! D80   D(18,17,19,20)        -59.9975         estimate D2E/DX2                !
 ! D81   D(18,17,19,21)         59.9692         estimate D2E/DX2                !
 ! D82   D(18,17,19,22)       -179.9882         estimate D2E/DX2                !
 ! D83   D(24,17,19,20)       -175.9569         estimate D2E/DX2                !
 ! D84   D(24,17,19,21)        -55.9902         estimate D2E/DX2                !
 ! D85   D(24,17,19,22)         64.0524         estimate D2E/DX2                !
 --------------------------------------------------------------------------------
 Trust Radius=3.00D-01 FncErr=1.00D-07 GrdErr=1.00D-07
 Number of steps in this run= 201 maximum allowed number of steps= 228.
 GradGradGradGradGradGradGradGradGradGradGradGradGradGradGradGradGradGrad

                          Input orientation:                          
 ---------------------------------------------------------------------
 Center     Atomic     Atomic              Coordinates (Angstroms)
 Number     Number      Type              X           Y           Z
 ---------------------------------------------------------------------
    1          6             0        5.362000   10.852000   -6.761000
    2          6             0        4.013000   10.480000   -7.366000
    3          8             0        4.216000   10.401000   -8.800000
    4          6             0        3.131000   10.015000   -9.514000
    5          6             0        3.380000    9.779000  -10.851000
    6          6             0        2.390000    9.375000  -11.729000
    7          6             0        1.084000    9.219000  -11.246000
    8          6             0        0.807000    9.458000   -9.881000
    9          6             0        1.833000    9.843000   -9.019000
   10          6             0       -0.495000    9.197000   -9.404000
   11          6             0       -0.816000    8.299000   -8.367000
   12          6             0        0.088000    7.485000   -7.457000
   13          7             0       -2.134000    8.198000   -8.195000
   14          8             0       -2.720000    9.024000   -9.159000
   15          6             0       -1.732000    9.613000   -9.901000
   16          6             0       -2.023000   10.599000  -11.042000
   17          6             0        2.873000    9.149000  -13.183000
   18          8             0        1.995000    9.570000  -14.207000
   19          6             0        3.196000    7.682000  -13.374000
   20          1             0        2.268000    7.093000  -13.329000
   21          1             0        3.675000    7.536000  -14.354000
   22          1             0        3.879000    7.350000  -12.579000
   23          1             0        2.385000    9.387000  -15.054000
   24          1             0        3.802000    9.725000  -13.304000
   25          1             0       -1.591000   11.581000  -10.797000
   26          1             0       -1.575000   10.224000  -11.974000
   27          1             0       -3.111000   10.699000  -11.171000
   28          1             0        0.707000    6.809000   -8.065000
   29          1             0        0.738000    8.163000   -6.884000
   30          1             0       -0.527000    6.894000   -6.763000
   31          1             0        1.627000   10.009000   -7.968000
   32          1             0        0.289000    8.916000  -11.918000
   33          1             0        4.388000    9.915000  -11.226000
   34          1             0        3.265000   11.251000   -7.129000
   35          1             0        3.675000    9.509000   -6.975000
   36          1             0        6.102000   10.078000   -7.012000
   37          1             0        5.692000   11.820000   -7.166000
   38          1             0        5.265000   10.925000   -5.667000
 ---------------------------------------------------------------------
                    Distance matrix (angstroms):
                    1          2          3          4          5
     1  C    0.000000
     2  C    1.524536   0.000000
     3  O    2.382066   1.450450   0.000000
     4  C    3.641008   2.368133   1.354997   0.000000
     5  C    4.669877   3.610722   2.300518   1.380314   0.000000
     6  C    5.974557   4.784446   3.600832   2.421757   1.383546
     7  C    6.409618   5.022306   4.146018   2.797079   2.396089
     8  C    5.694353   4.200970   3.698526   2.417833   2.768442
     9  C    4.309349   2.809017   2.457237   1.399790   2.398651
    10  C    6.635429   5.110929   4.899791   3.718750   4.177099
    11  C    6.874935   5.392402   5.470550   4.454108   5.095790
    12  C    6.295727   4.938009   5.229444   4.460045   5.255372
    13  N    8.080228   6.609113   6.748462   5.723764   6.321241
    14  O    8.626164   7.118151   7.080474   5.944940   6.375178
    15  C    7.856180   6.339001   6.100152   4.894910   5.202173
    16  C    8.539859   7.068269   6.632563   5.407361   5.468207
    17  C    7.094886   6.075249   4.752036   3.778635   2.468233
    18  O    8.271827   7.190251   5.904155   4.848997   3.636570
    19  C    7.646713   6.677751   5.418010   4.510733   3.285848
    20  H    8.175668   7.076310   5.937121   4.882323   3.819898
    21  H    8.455500   7.590357   6.272784   5.465069   4.170022
    22  H    6.950713   6.081959   4.868574   4.129885   3.022421
    23  H    8.932111   7.934127   6.594943   5.625167   4.336923
    24  H    6.820160   5.989523   4.573225   3.859850   2.489620
    25  H    8.072481   6.662490   6.253132   5.137677   5.287812
    26  H    8.700099   7.247409   6.606155   5.314294   5.100116
    27  H    9.553179   8.079441   7.706839   6.494311   6.563679
    28  H    6.302007   4.989437   5.075014   4.272448   4.871101
    29  H    5.350442   4.040599   4.558090   4.009146   5.032764
    30  H    7.095498   5.816752   6.240550   5.539820   6.348198
    31  H    4.014688   2.505442   2.747510   2.156888   3.381952
    32  H    7.488529   6.085637   5.229577   3.881234   3.381943
    33  H    4.665069   3.919113   2.480173   2.126263   1.084060
    34  H    2.166110   1.100052   2.102176   2.689587   4.004159
    35  H    2.166890   1.099985   2.102135   2.645466   3.896576
    36  H    1.099853   2.156581   2.618830   3.884690   4.715571
    37  H    1.099977   2.157462   2.619560   3.915335   4.805232
    38  H    1.100715   2.156880   3.345245   4.492379   5.633862
                    6          7          8          9         10
     6  C    0.000000
     7  C    1.401164   0.000000
     8  C    2.434724   1.413179   0.000000
     9  C    2.805953   2.431030   1.394254   0.000000
    10  C    3.709519   2.426250   1.410976   2.446452   0.000000
    11  C    4.768570   3.570020   2.503918   3.134684   1.408834
    12  C    5.207810   4.284308   3.207096   3.323407   2.657375
    13  N    5.860125   4.550447   3.616584   4.372881   2.268480
    14  O    5.730637   4.343272   3.626206   4.628193   2.245123
    15  C    4.515430   3.145492   2.543805   3.679681   1.396508
    16  C    4.630844   3.405799   3.264767   4.419593   2.642618
    17  C    1.548703   2.637686   3.907306   4.347658   5.062269
    18  O    2.516850   3.117795   4.487557   5.197703   5.422918
    19  C    2.494376   3.369169   4.589395   5.049130   5.628464
    20  H    2.789697   3.203220   4.429046   5.131065   5.240860
    21  H    3.453081   4.382400   5.650419   6.097330   6.682090
    22  H    2.653346   3.616915   4.600006   4.803620   5.711734
    23  H    3.325025   4.027616   5.408794   6.077324   6.344525
    24  H    2.144031   3.446581   4.556121   4.717214   5.826920
    25  H    4.645796   3.596703   3.331154   4.231513   2.970711
    26  H    4.062272   2.934330   3.262105   4.526770   2.970863
    27  H    5.685538   4.449050   4.307540   5.459577   3.495962
    28  H    4.779303   4.008614   3.213263   3.373892   2.990028
    29  H    5.260425   4.501322   3.265547   2.929104   2.989957
    30  H    6.270997   5.300777   4.251538   4.399516   3.504242
    31  H    3.889633   3.415294   2.153037   1.083786   2.687810
    32  H    2.158843   1.084167   2.170589   3.412838   2.648360
    33  H    2.129933   3.376571   3.852458   3.376989   5.261074
    34  H    5.044304   5.082861   4.102453   2.757751   4.850994
    35  H    4.926428   5.003881   4.083241   2.771724   4.835937
    36  H    6.043446   6.621553   6.054138   4.723096   7.072357
    37  H    6.140212   6.681711   6.067412   4.715296   7.082919
    38  H    6.885925   7.177495   6.307428   4.917850   7.080166
                   11         12         13         14         15
    11  C    0.000000
    12  C    1.519181   0.000000
    13  N    1.333008   2.447508   0.000000
    14  O    2.185888   3.626319   1.398202   0.000000
    15  C    2.217839   3.716708   2.252613   1.368806   0.000000
    16  C    3.728602   5.196686   3.725927   2.551886   1.535825
    17  C    6.125772   6.581200   7.131241   6.891288   5.673874
    18  O    6.604753   7.317539   7.421265   6.929044   5.695087
    19  C    6.445687   6.686506   7.449644   7.386897   6.330535
    20  H    5.965479   6.275862   6.852488   6.782168   5.839656
    21  H    7.522993   7.774174   8.492114   8.372466   7.306079
    22  H    6.378446   6.373758   7.489641   7.618758   6.616357
    23  H    7.493071   8.161386   8.299456   7.806652   6.599559
    24  H    6.908934   7.280028   7.979330   7.759440   6.497546
    25  H    4.156567   5.545436   4.302318   3.239743   2.166961
    26  H    4.158384   5.538139   4.324118   3.267300   2.166864
    27  H    4.346198   5.861501   4.008255   2.647008   2.166550
    28  H    2.151937   1.099910   3.165044   4.224617   4.145122
    29  H    2.152371   1.100233   3.157266   4.227849   4.160011
    30  H    2.151828   1.099610   2.516642   3.884194   4.323428
    31  H    3.008579   3.000036   4.180475   4.613579   3.895662
    32  H    3.769790   4.689209   4.499687   4.083849   2.939139
    33  H    6.153613   6.212911   7.394020   7.455872   6.269069
    34  H    5.186666   4.937982   6.293359   6.700795   5.944496
    35  H    4.854981   4.146742   6.078783   6.775035   6.148816
    36  H    7.270460   6.564287   8.530275   9.140471   8.362661
    37  H    7.496259   7.090961   8.684699   9.085781   8.213821
    38  H    7.152932   6.468310   8.280852   8.920095   8.282880
                   16         17         18         19         20
    16  C    0.000000
    17  C    5.536894   0.000000
    18  O    5.217316   1.413047   0.000000
    19  C    6.417560   1.514232   2.387642   0.000000
    20  H    5.994588   2.148133   2.642147   1.100059   0.000000
    21  H    7.267635   2.148538   2.642189   1.100526   1.796252
    22  H    6.910280   2.147848   3.335902   1.099426   1.795514
    23  H    6.082397   1.948186   0.950262   2.527280   2.872586
    24  H    6.309607   1.099754   2.026002   2.132132   3.046507
    25  H    1.100442   5.615596   5.341500   6.690179   6.437783
    26  H    1.099979   4.733076   4.261327   5.584282   5.138855
    27  H    1.100175   6.500685   6.046749   7.330331   6.825968
    28  H    5.538910   6.030015   6.856109   5.928130   5.497915
    29  H    5.553934   6.723676   7.562144   6.956524   6.709980
    30  H    5.854475   7.606670   8.302686   7.628040   7.138906
    31  H    4.808334   5.430317   6.265243   6.091102   6.136307
    32  H    2.990854   2.886446   2.928766   3.477548   3.038205
    33  H    6.450010   2.590720   3.838207   3.319798   4.108612
    34  H    6.610569   6.420513   7.384900   7.193229   7.531466
    35  H    7.084899   6.269934   7.424820   6.671924   6.941903
    36  H    9.084490   7.026430   8.300213   7.393287   7.969584
    37  H    8.719830   7.161375   8.264744   7.867167   8.488279
    38  H    9.061559   8.084930   9.244486   8.613690   9.075928
                   21         22         23         24         25
    21  H    0.000000
    22  H    1.796340   0.000000
    23  H    2.362266   3.536528   0.000000
    24  H    2.431121   2.484387   2.276979   0.000000
    25  H    7.532930   7.141273   6.224489   6.230107   0.000000
    26  H    6.360208   6.194515   5.086115   5.561477   1.796395
    27  H    8.135469   7.877713   6.856023   7.299858   1.796719
    28  H    6.992072   5.543506   7.635960   6.747533   5.959582
    29  H    8.051087   6.554378   8.423757   7.283155   5.693728
    30  H    8.700129   7.310720   9.134302   8.339034   6.274808
    31  H    7.147799   5.779542   7.153520   5.769244   4.563984
    32  H    4.393574   3.972075   3.801257   3.862207   3.448661
    33  H    3.994045   2.944302   4.352514   2.167390   6.221578
    34  H    8.134491   6.730327   8.188682   6.383390   6.094576
    35  H    7.638218   6.008969   8.182251   6.333958   6.828735
    36  H    8.139844   6.585985   8.886357   6.708493   8.704452
    37  H    8.607455   7.250410   8.892485   6.755455   8.141460
    38  H    9.459249   7.904262   9.938592   7.867918   8.587897
                   26         27         28         29         30
    26  H    0.000000
    27  H    1.797145   0.000000
    28  H    5.670100   6.273473   0.000000
    29  H    5.958674   6.294797   1.796952   0.000000
    30  H    6.272298   6.370679   1.795880   1.795892   0.000000
    31  H    5.132939   5.760551   3.331037   2.317993   3.974288
    32  H    2.277827   3.911150   4.411324   5.109772   5.597175
    33  H    6.017670   7.540072   5.760982   5.936747   7.293973
    34  H    6.924908   7.569402   5.210645   3.997687   5.787631
    35  H    7.284485   8.066741   4.157779   3.232022   4.953784
    36  H    9.142160  10.127304   6.395404   5.697026   7.358227
    37  H    8.858520   9.735989   7.125205   6.164032   7.943793
    38  H    9.330340  10.025092   6.592968   5.440906   7.141249
                   31         32         33         34         35
    31  H    0.000000
    32  H    4.311310   0.000000
    33  H    4.271595   4.275356   0.000000
    34  H    2.220254   6.102731   4.453250   0.000000
    35  H    2.330312   6.020788   4.329458   1.796213   0.000000
    36  H    4.576497   7.694807   4.552160   3.072163   2.493082
    37  H    4.521852   7.759325   4.670443   2.493082   3.073352
    38  H    4.400989   8.238426   5.717666   2.498744   2.498804
                   36         37         38
    36  H    0.000000
    37  H    1.796213   0.000000
    38  H    1.796386   1.797319   0.000000
 Stoichiometry    C15H19NO3
 Framework group  C1[X(C15H19NO3)]
 Deg. of freedom   108
 Full point group                 C1
 Largest Abelian subgroup         C1      NOp   1
 Largest concise Abelian subgroup C1      NOp   1
                         Standard orientation:                         
 ---------------------------------------------------------------------
 Center     Atomic     Atomic              Coordinates (Angstroms)
 Number     Number      Type              X           Y           Z
 ---------------------------------------------------------------------
    1          6             0       -3.825200   -3.690774   -0.479225
    2          6             0       -2.501903   -2.938398   -0.395410
    3          8             0       -2.832631   -1.526297   -0.415308
    4          6             0       -1.777378   -0.686599   -0.283534
    5          6             0       -2.118726    0.642312   -0.132726
    6          6             0       -1.170392    1.638438    0.017593
    7          6             0        0.185613    1.286218   -0.003696
    8          6             0        0.556799   -0.068403   -0.159572
    9          6             0       -0.425497   -1.049670   -0.286678
   10          6             0        1.924884   -0.403798   -0.077672
   11          6             0        2.486273   -1.308301    0.845112
   12          6             0        1.818318   -2.198792    1.878927
   13          7             0        3.814173   -1.357273    0.739320
   14          8             0        4.162442   -0.441261   -0.257975
   15          6             0        3.024331    0.147996   -0.738712
   16          6             0        3.039757    1.197510   -1.859890
   17          6             0       -1.754914    3.062552    0.187045
   18          8             0       -1.061758    4.105787   -0.467093
   19          6             0       -1.859268    3.381385    1.663647
   20          1             0       -0.849999    3.477628    2.090546
   21          1             0       -2.404979    4.327684    1.797347
   22          1             0       -2.397923    2.571888    2.176779
   23          1             0       -1.500852    4.931744   -0.299786
   24          1             0       -2.770732    3.042909   -0.233891
   25          1             0        2.484619    0.813610   -2.729037
   26          1             0        2.565540    2.123321   -1.502193
   27          1             0        4.079741    1.405966   -2.152062
   28          1             0        1.256242   -1.576177    2.590420
   29          1             0        1.130028   -2.893476    1.374758
   30          1             0        2.585534   -2.771593    2.419687
   31          1             0       -0.143997   -2.091364   -0.387788
   32          1             0        0.947080    2.051095    0.099014
   33          1             0       -3.168010    0.914687   -0.131806
   34          1             0       -1.865348   -3.192773   -1.255762
   35          1             0       -1.977055   -3.193667    0.536973
   36          1             0       -4.454826   -3.421537    0.381449
   37          1             0       -4.343118   -3.420644   -1.411287
   38          1             0       -3.631745   -4.774285   -0.466852
 ---------------------------------------------------------------------
 Rotational constants (GHZ):      0.3610485      0.2833246      0.1816499
 Standard basis: 6-31G(d) (6D, 7F)
 There are   323 symmetry adapted basis functions of A   symmetry.
 Integral buffers will be    131072 words long.
 Raffenetti 1 integral format.
 Two-electron integral symmetry is turned on.
   323 basis functions,   608 primitive gaussians,   323 cartesian basis functions
    70 alpha electrons       70 beta electrons
       nuclear repulsion energy      1419.7928994958 Hartrees.
 NAtoms=   38 NActive=   38 NUniq=   38 SFac= 7.50D-01 NAtFMM=   80 NAOKFM=F Big=F
 One-electron integrals computed using PRISM.
 NBasis=   323 RedAO= T  NBF=   323
 NBsUse=   323 1.00D-06 NBFU=   323
 Harris functional with IExCor=  205 diagonalized for initial guess.
 ExpMin= 1.61D-01 ExpMax= 5.48D+03 ExpMxC= 8.25D+02 IAcc=1 IRadAn=         1 AccDes= 1.00D-06
 HarFok:  IExCor= 205 AccDes= 1.00D-06 IRadAn=         1 IDoV=1
 ScaDFX=  1.000000  1.000000  1.000000  1.000000
 Initial guess orbital symmetries:
       Occupied  (A) (A) (A) (A) (A) (A) (A) (A) (A) (A) (A) (A)
                 (A) (A) (A) (A) (A) (A) (A) (A) (A) (A) (A) (A)
                 (A) (A) (A) (A) (A) (A) (A) (A) (A) (A) (A) (A)
                 (A) (A) (A) (A) (A) (A) (A) (A) (A) (A) (A) (A)
                 (A) (A) (A) (A) (A) (A) (A) (A) (A) (A) (A) (A)
                 (A) (A) (A) (A) (A) (A) (A) (A) (A) (A)
       Virtual   (A) (A) (A) (A) (A) (A) (A) (A) (A) (A) (A) (A)
                 (A) (A) (A) (A) (A) (A) (A) (A) (A) (A) (A) (A)
                 (A) (A) (A) (A) (A) (A) (A) (A) (A) (A) (A) (A)
                 (A) (A) (A) (A) (A) (A) (A) (A) (A) (A) (A) (A)
                 (A) (A) (A) (A) (A) (A) (A) (A) (A) (A) (A) (A)
                 (A) (A) (A) (A) (A) (A) (A) (A) (A) (A) (A) (A)
                 (A) (A) (A) (A) (A) (A) (A) (A) (A) (A) (A) (A)
                 (A) (A) (A) (A) (A) (A) (A) (A) (A) (A) (A) (A)
                 (A) (A) (A) (A) (A) (A) (A) (A) (A) (A) (A) (A)
                 (A) (A) (A) (A) (A) (A) (A) (A) (A) (A) (A) (A)
                 (A) (A) (A) (A) (A) (A) (A) (A) (A) (A) (A) (A)
                 (A) (A) (A) (A) (A) (A) (A) (A) (A) (A) (A) (A)
                 (A) (A) (A) (A) (A) (A) (A) (A) (A) (A) (A) (A)
                 (A) (A) (A) (A) (A) (A) (A) (A) (A) (A) (A) (A)
                 (A) (A) (A) (A) (A) (A) (A) (A) (A) (A) (A) (A)
                 (A) (A) (A) (A) (A) (A) (A) (A) (A) (A) (A) (A)
                 (A) (A) (A) (A) (A) (A) (A) (A) (A) (A) (A) (A)
                 (A) (A) (A) (A) (A) (A) (A) (A) (A) (A) (A) (A)
                 (A) (A) (A) (A) (A) (A) (A) (A) (A) (A) (A) (A)
                 (A) (A) (A) (A) (A) (A) (A) (A) (A) (A) (A) (A)
                 (A) (A) (A) (A) (A) (A) (A) (A) (A) (A) (A) (A)
                 (A)
 The electronic state of the initial guess is 1-A.
 Requested convergence on RMS density matrix=1.00D-08 within 128 cycles.
 Requested convergence on MAX density matrix=1.00D-06.
 Requested convergence on             energy=1.00D-06.
 No special actions if energy rises.
 Integral accuracy reduced to 1.0D-05 until final iterations.
 Initial convergence to 1.0D-05 achieved.  Increase integral accuracy.
 SCF Done:  E(RHF) =  -858.034446127     A.U. after   16 cycles
             Convg  =    0.7888D-08             -V/T =  2.0023
             S**2   =   0.0000

 **********************************************************************

            Population analysis using the SCF density.

 **********************************************************************

 Orbital symmetries:
 BldTbl:  Degeneracy threshold= 1.00D-02
       Occupied  (A) (A) (A) (A) (A) (A) (A) (A) (A) (A) (A) (A)
                 (A) (A) (A) (A) (A) (A) (A) (A) (A) (A) (A) (A)
                 (A) (A) (A) (A) (A) (A) (A) (A) (A) (A) (A) (A)
                 (A) (A) (A) (A) (A) (A) (A) (A) (A) (A) (A) (A)
                 (A) (A) (A) (A) (A) (A) (A) (A) (A) (A) (A) (A)
                 (A) (A) (A) (A) (A) (A) (A) (A) (A) (A)
       Virtual   (A) (A) (A) (A) (A) (A) (A) (A) (A) (A) (A) (A)
                 (A) (A) (A) (A) (A) (A) (A) (A) (A) (A) (A) (A)
                 (A) (A) (A) (A) (A) (A) (A) (A) (A) (A) (A) (A)
                 (A) (A) (A) (A) (A) (A) (A) (A) (A) (A) (A) (A)
                 (A) (A) (A) (A) (A) (A) (A) (A) (A) (A) (A) (A)
                 (A) (A) (A) (A) (A) (A) (A) (A) (A) (A) (A) (A)
                 (A) (A) (A) (A) (A) (A) (A) (A) (A) (A) (A) (A)
                 (A) (A) (A) (A) (A) (A) (A) (A) (A) (A) (A) (A)
                 (A) (A) (A) (A) (A) (A) (A) (A) (A) (A) (A) (A)
                 (A) (A) (A) (A) (A) (A) (A) (A) (A) (A) (A) (A)
                 (A) (A) (A) (A) (A) (A) (A) (A) (A) (A) (A) (A)
                 (A) (A) (A) (A) (A) (A) (A) (A) (A) (A) (A) (A)
                 (A) (A) (A) (A) (A) (A) (A) (A) (A) (A) (A) (A)
                 (A) (A) (A) (A) (A) (A) (A) (A) (A) (A) (A) (A)
                 (A) (A) (A) (A) (A) (A) (A) (A) (A) (A) (A) (A)
                 (A) (A) (A) (A) (A) (A) (A) (A) (A) (A) (A) (A)
                 (A) (A) (A) (A) (A) (A) (A) (A) (A) (A) (A) (A)
                 (A) (A) (A) (A) (A) (A) (A) (A) (A) (A) (A) (A)
                 (A) (A) (A) (A) (A) (A) (A) (A) (A) (A) (A) (A)
                 (A) (A) (A) (A) (A) (A) (A) (A) (A) (A) (A) (A)
                 (A) (A) (A) (A) (A) (A) (A) (A) (A) (A) (A) (A)
                 (A)
 The electronic state is 1-A.
 Alpha  occ. eigenvalues --  -20.64240 -20.59520 -20.56255 -15.60773 -11.32358
 Alpha  occ. eigenvalues --  -11.30224 -11.29783 -11.29400 -11.27826 -11.25353
 Alpha  occ. eigenvalues --  -11.25222 -11.25000 -11.24029 -11.23530 -11.23141
 Alpha  occ. eigenvalues --  -11.23139 -11.22970 -11.22397 -11.22292  -1.46909
 Alpha  occ. eigenvalues --   -1.41049  -1.36906  -1.17209  -1.15063  -1.09865
 Alpha  occ. eigenvalues --   -1.05607  -1.04010  -1.00010  -0.98801  -0.97131
 Alpha  occ. eigenvalues --   -0.96065  -0.88397  -0.85524  -0.84485  -0.79267
 Alpha  occ. eigenvalues --   -0.76601  -0.75790  -0.71217  -0.70156  -0.67382
 Alpha  occ. eigenvalues --   -0.67310  -0.66952  -0.64959  -0.63909  -0.62544
 Alpha  occ. eigenvalues --   -0.61550  -0.59833  -0.58525  -0.58445  -0.57081
 Alpha  occ. eigenvalues --   -0.56837  -0.56387  -0.56287  -0.55376  -0.54736
 Alpha  occ. eigenvalues --   -0.54250  -0.53364  -0.52391  -0.52072  -0.50996
 Alpha  occ. eigenvalues --   -0.50349  -0.49582  -0.47701  -0.46578  -0.45493
 Alpha  occ. eigenvalues --   -0.43969  -0.39974  -0.35591  -0.32315  -0.29865
 Alpha virt. eigenvalues --    0.11618   0.14601   0.15342   0.20753   0.21364
 Alpha virt. eigenvalues --    0.23853   0.23994   0.24516   0.26589   0.27598
 Alpha virt. eigenvalues --    0.28096   0.28590   0.29368   0.29623   0.29847
 Alpha virt. eigenvalues --    0.30884   0.30920   0.31444   0.32441   0.32857
 Alpha virt. eigenvalues --    0.33909   0.34621   0.34844   0.36737   0.37251
 Alpha virt. eigenvalues --    0.37746   0.39723   0.40027   0.42114   0.42429
 Alpha virt. eigenvalues --    0.42744   0.44776   0.45461   0.47343   0.48212
 Alpha virt. eigenvalues --    0.51030   0.54079   0.56889   0.59775   0.60557
 Alpha virt. eigenvalues --    0.61845   0.63087   0.67157   0.69658   0.70580
 Alpha virt. eigenvalues --    0.72502   0.73067   0.73922   0.74256   0.74557
 Alpha virt. eigenvalues --    0.76334   0.76796   0.77337   0.77673   0.78749
 Alpha virt. eigenvalues --    0.79768   0.80077   0.80893   0.81110   0.82179
 Alpha virt. eigenvalues --    0.83352   0.84172   0.85772   0.86421   0.87180
 Alpha virt. eigenvalues --    0.88129   0.90174   0.92340   0.92841   0.93346
 Alpha virt. eigenvalues --    0.94831   0.95678   0.96589   0.97523   0.99515
 Alpha virt. eigenvalues --    1.00235   1.01491   1.02230   1.03244   1.04126
 Alpha virt. eigenvalues --    1.05722   1.06871   1.07883   1.09917   1.10415
 Alpha virt. eigenvalues --    1.10496   1.11365   1.11481   1.12244   1.12398
 Alpha virt. eigenvalues --    1.14032   1.14351   1.14647   1.15872   1.16304
 Alpha virt. eigenvalues --    1.17283   1.17594   1.18611   1.18746   1.19156
 Alpha virt. eigenvalues --    1.19981   1.20835   1.21884   1.22210   1.22893
 Alpha virt. eigenvalues --    1.24004   1.25230   1.26534   1.27134   1.28717
 Alpha virt. eigenvalues --    1.29146   1.30483   1.30931   1.32727   1.32959
 Alpha virt. eigenvalues --    1.36006   1.37442   1.39409   1.40103   1.42382
 Alpha virt. eigenvalues --    1.44486   1.47861   1.51364   1.52016   1.53480
 Alpha virt. eigenvalues --    1.56006   1.57843   1.60454   1.61611   1.62386
 Alpha virt. eigenvalues --    1.63482   1.64571   1.66381   1.69282   1.69977
 Alpha virt. eigenvalues --    1.71339   1.72137   1.73332   1.75331   1.76966
 Alpha virt. eigenvalues --    1.77586   1.78634   1.79801   1.81838   1.82662
 Alpha virt. eigenvalues --    1.90079   1.91557   1.93176   1.96453   1.98743
 Alpha virt. eigenvalues --    2.00316   2.02569   2.04482   2.04633   2.05885
 Alpha virt. eigenvalues --    2.08291   2.08751   2.11248   2.13673   2.14202
 Alpha virt. eigenvalues --    2.17095   2.18411   2.18995   2.20194   2.21190
 Alpha virt. eigenvalues --    2.21974   2.23601   2.24738   2.26671   2.27443
 Alpha virt. eigenvalues --    2.28449   2.29710   2.31042   2.34411   2.35215
 Alpha virt. eigenvalues --    2.36717   2.39514   2.40592   2.41987   2.44482
 Alpha virt. eigenvalues --    2.45042   2.46178   2.47266   2.48299   2.48873
 Alpha virt. eigenvalues --    2.50927   2.53109   2.53850   2.54586   2.55721
 Alpha virt. eigenvalues --    2.56917   2.57509   2.59267   2.60310   2.61723
 Alpha virt. eigenvalues --    2.62454   2.64297   2.65252   2.67825   2.70086
 Alpha virt. eigenvalues --    2.71698   2.72426   2.73268   2.76540   2.78172
 Alpha virt. eigenvalues --    2.79983   2.81890   2.84451   2.85604   2.88598
 Alpha virt. eigenvalues --    2.91032   2.92271   2.93016   2.95547   2.97855
 Alpha virt. eigenvalues --    2.99123   3.02275   3.06646   3.07677   3.10446
 Alpha virt. eigenvalues --    3.12664   3.14923   3.16841   3.20685   3.22703
 Alpha virt. eigenvalues --    3.27326   3.33796   3.36310   3.38327   3.40820
 Alpha virt. eigenvalues --    3.53222   3.56679   3.65944   3.84672   4.21814
 Alpha virt. eigenvalues --    4.22878   4.47666   4.49519   4.55260   4.57111
 Alpha virt. eigenvalues --    4.58817   4.60003   4.62465   4.65433   4.71411
 Alpha virt. eigenvalues --    4.73440   4.82779   4.84057   4.87166   4.93538
 Alpha virt. eigenvalues --    4.99031   5.09446   5.26911
          Condensed to atoms (all electrons):
              1          2          3          4          5          6
     1  C    5.090060   0.355533  -0.051963   0.002256  -0.000043   0.000002
     2  C    0.355533   4.844831   0.193609  -0.044397   0.002724  -0.000046
     3  O   -0.051963   0.193609   8.452170   0.250399  -0.052427   0.001587
     4  C    0.002256  -0.044397   0.250399   4.362153   0.584110  -0.035032
     5  C   -0.000043   0.002724  -0.052427   0.584110   5.028935   0.542040
     6  C    0.000002  -0.000046   0.001587  -0.035032   0.542040   4.912839
     7  C    0.000000   0.000003   0.000422  -0.031402  -0.051782   0.532629
     8  C    0.000009  -0.000123   0.002515  -0.024386  -0.028823  -0.038911
     9  C    0.000464  -0.010382  -0.049098   0.519392  -0.063859  -0.031156
    10  C    0.000000  -0.000007  -0.000086   0.001525   0.000897   0.005040
    11  C    0.000000  -0.000003   0.000000   0.000085   0.000047  -0.000039
    12  C    0.000000  -0.000039   0.000001  -0.000039  -0.000006  -0.000016
    13  N    0.000000   0.000000   0.000000   0.000000   0.000000   0.000000
    14  O    0.000000   0.000000   0.000000   0.000000   0.000000  -0.000001
    15  C    0.000000   0.000000   0.000000  -0.000015   0.000009   0.000279
    16  C    0.000000   0.000000   0.000000  -0.000008  -0.000002  -0.000045
    17  C    0.000000   0.000002  -0.000066   0.002845  -0.038267   0.316039
    18  O    0.000000   0.000000   0.000000  -0.000022  -0.000206  -0.036614
    19  C    0.000000   0.000000   0.000002  -0.000275  -0.007226  -0.070095
    20  H    0.000000   0.000000   0.000000   0.000007   0.000623  -0.007486
    21  H    0.000000   0.000000   0.000000   0.000001   0.000014   0.007444
    22  H    0.000000   0.000000  -0.000002   0.000045   0.001355  -0.001771
    23  H    0.000000   0.000000   0.000000   0.000001  -0.000068   0.006053
    24  H    0.000000   0.000000  -0.000012   0.000738   0.002278  -0.075586
    25  H    0.000000   0.000000   0.000000  -0.000006  -0.000004   0.000007
    26  H    0.000000   0.000000   0.000000   0.000001   0.000001  -0.000037
    27  H    0.000000   0.000000   0.000000   0.000000   0.000000   0.000001
    28  H    0.000000  -0.000001   0.000000  -0.000050  -0.000012  -0.000006
    29  H   -0.000001   0.000007  -0.000004   0.000120   0.000002   0.000001
    30  H    0.000000   0.000000   0.000000   0.000001   0.000000   0.000000
    31  H    0.000063   0.001821  -0.003747  -0.027147   0.002262   0.000226
    32  H    0.000000   0.000000   0.000002   0.000284   0.002532  -0.023838
    33  H   -0.000019  -0.000143   0.001121  -0.025849   0.375080  -0.036820
    34  H   -0.038703   0.394338  -0.036337  -0.001941  -0.000067  -0.000001
    35  H   -0.037373   0.391966  -0.037099  -0.001256   0.000149  -0.000010
    36  H    0.389096  -0.036618   0.001226  -0.000037  -0.000024   0.000000
    37  H    0.389682  -0.036484   0.001016  -0.000048  -0.000016   0.000000
    38  H    0.384635  -0.038446   0.002721  -0.000037   0.000001   0.000000
              7          8          9         10         11         12
     1  C    0.000000   0.000009   0.000464   0.000000   0.000000   0.000000
     2  C    0.000003  -0.000123  -0.010382  -0.000007  -0.000003  -0.000039
     3  O    0.000422   0.002515  -0.049098  -0.000086   0.000000   0.000001
     4  C   -0.031402  -0.024386   0.519392   0.001525   0.000085  -0.000039
     5  C   -0.051782  -0.028823  -0.063859   0.000897   0.000047  -0.000006
     6  C    0.532629  -0.038911  -0.031156   0.005040  -0.000039  -0.000016
     7  C    4.991123   0.543064  -0.048293  -0.040574   0.002968   0.000090
     8  C    0.543064   4.816030   0.519591   0.310201  -0.051914  -0.000435
     9  C   -0.048293   0.519591   5.136039  -0.034704  -0.007165  -0.002167
    10  C   -0.040574   0.310201  -0.034704   5.081824   0.480263  -0.044794
    11  C    0.002968  -0.051914  -0.007165   0.480263   4.717265   0.328665
    12  C    0.000090  -0.000435  -0.002167  -0.044794   0.328665   5.114188
    13  N   -0.000077   0.007694  -0.000054  -0.042916   0.511213  -0.051762
    14  O   -0.000033   0.005881  -0.000071  -0.030467  -0.105979   0.003810
    15  C   -0.005781  -0.057677   0.002690   0.618064  -0.074607   0.002831
    16  C   -0.001111   0.001945  -0.000054  -0.049087   0.002911  -0.000047
    17  C   -0.027823   0.001795   0.000299  -0.000171   0.000000   0.000000
    18  O    0.004289   0.000167  -0.000002  -0.000004   0.000000   0.000000
    19  C   -0.002205   0.000034   0.000005  -0.000001   0.000000   0.000000
    20  H    0.001703   0.000025   0.000001  -0.000006   0.000000   0.000000
    21  H   -0.000044   0.000000   0.000000   0.000000   0.000000   0.000000
    22  H    0.000514  -0.000037   0.000000   0.000000   0.000000   0.000000
    23  H   -0.000270  -0.000002   0.000000   0.000000   0.000000   0.000000
    24  H    0.002737   0.000010   0.000008  -0.000001   0.000000   0.000000
    25  H    0.000405   0.000490   0.000117  -0.003420  -0.000017  -0.000001
    26  H   -0.000114   0.000170  -0.000043  -0.003678  -0.000011   0.000000
    27  H    0.000101  -0.000041   0.000002   0.002926   0.000034   0.000001
    28  H    0.000213   0.001621   0.000199  -0.001891  -0.038227   0.387001
    29  H   -0.000048  -0.000840  -0.000100  -0.000320  -0.041027   0.386769
    30  H   -0.000002  -0.000032   0.000152   0.002731  -0.037332   0.389548
    31  H    0.002086  -0.030546   0.374632   0.000921   0.001753  -0.000789
    32  H    0.375977  -0.034738   0.002532   0.000053   0.000167   0.000001
    33  H    0.003158  -0.000140   0.004494   0.000003   0.000000   0.000000
    34  H   -0.000001  -0.000216  -0.000478  -0.000002  -0.000002   0.000005
    35  H   -0.000009  -0.000251   0.001394  -0.000009  -0.000006   0.000032
    36  H    0.000000   0.000000  -0.000004   0.000000   0.000000   0.000000
    37  H    0.000000   0.000000  -0.000005   0.000000   0.000000   0.000000
    38  H    0.000000   0.000000   0.000002   0.000000   0.000000   0.000000
             13         14         15         16         17         18
     1  C    0.000000   0.000000   0.000000   0.000000   0.000000   0.000000
     2  C    0.000000   0.000000   0.000000   0.000000   0.000002   0.000000
     3  O    0.000000   0.000000   0.000000   0.000000  -0.000066   0.000000
     4  C    0.000000   0.000000  -0.000015  -0.000008   0.002845  -0.000022
     5  C    0.000000   0.000000   0.000009  -0.000002  -0.038267  -0.000206
     6  C    0.000000  -0.000001   0.000279  -0.000045   0.316039  -0.036614
     7  C   -0.000077  -0.000033  -0.005781  -0.001111  -0.027823   0.004289
     8  C    0.007694   0.005881  -0.057677   0.001945   0.001795   0.000167
     9  C   -0.000054  -0.000071   0.002690  -0.000054   0.000299  -0.000002
    10  C   -0.042916  -0.030467   0.618064  -0.049087  -0.000171  -0.000004
    11  C    0.511213  -0.105979  -0.074607   0.002911   0.000000   0.000000
    12  C   -0.051762   0.003810   0.002831  -0.000047   0.000000   0.000000
    13  N    6.726338   0.164034  -0.114334   0.001709   0.000000   0.000000
    14  O    0.164034   8.257434   0.243059  -0.028035   0.000000   0.000000
    15  C   -0.114334   0.243059   4.703091   0.328005  -0.000004   0.000000
    16  C    0.001709  -0.028035   0.328005   5.109188  -0.000002  -0.000002
    17  C    0.000000   0.000000  -0.000004  -0.000002   4.716620   0.208010
    18  O    0.000000   0.000000   0.000000  -0.000002   0.208010   8.412501
    19  C    0.000000   0.000000   0.000000   0.000000   0.348662  -0.059535
    20  H    0.000000   0.000000   0.000000   0.000000  -0.031776   0.001308
    21  H    0.000000   0.000000   0.000000   0.000000  -0.039768  -0.000630
    22  H    0.000000   0.000000   0.000000   0.000000  -0.034116   0.003723
    23  H    0.000000   0.000000   0.000000   0.000000  -0.022770   0.262313
    24  H    0.000000   0.000000   0.000000   0.000000   0.438804  -0.041627
    25  H   -0.000028   0.000923  -0.035537   0.387647  -0.000001   0.000000
    26  H   -0.000035   0.001068  -0.035589   0.387703   0.000008   0.000013
    27  H   -0.000062  -0.000487  -0.036315   0.385439   0.000000   0.000000
    28  H    0.000537  -0.000050  -0.000085  -0.000001   0.000000   0.000000
    29  H    0.000386  -0.000058   0.000025   0.000000   0.000000   0.000000
    30  H    0.001702  -0.000079   0.000051   0.000001   0.000000   0.000000
    31  H   -0.000046  -0.000003   0.000127   0.000003   0.000006   0.000000
    32  H   -0.000009  -0.000041   0.002064  -0.000995  -0.002002   0.001888
    33  H    0.000000   0.000000   0.000000   0.000000  -0.004637   0.000058
    34  H    0.000000   0.000000   0.000000   0.000000   0.000000   0.000000
    35  H    0.000000   0.000000   0.000000   0.000000   0.000000   0.000000
    36  H    0.000000   0.000000   0.000000   0.000000   0.000000   0.000000
    37  H    0.000000   0.000000   0.000000   0.000000   0.000000   0.000000
    38  H    0.000000   0.000000   0.000000   0.000000   0.000000   0.000000
             19         20         21         22         23         24
     1  C    0.000000   0.000000   0.000000   0.000000   0.000000   0.000000
     2  C    0.000000   0.000000   0.000000   0.000000   0.000000   0.000000
     3  O    0.000002   0.000000   0.000000  -0.000002   0.000000  -0.000012
     4  C   -0.000275   0.000007   0.000001   0.000045   0.000001   0.000738
     5  C   -0.007226   0.000623   0.000014   0.001355  -0.000068   0.002278
     6  C   -0.070095  -0.007486   0.007444  -0.001771   0.006053  -0.075586
     7  C   -0.002205   0.001703  -0.000044   0.000514  -0.000270   0.002737
     8  C    0.000034   0.000025   0.000000  -0.000037  -0.000002   0.000010
     9  C    0.000005   0.000001   0.000000   0.000000   0.000000   0.000008
    10  C   -0.000001  -0.000006   0.000000   0.000000   0.000000  -0.000001
    11  C    0.000000   0.000000   0.000000   0.000000   0.000000   0.000000
    12  C    0.000000   0.000000   0.000000   0.000000   0.000000   0.000000
    13  N    0.000000   0.000000   0.000000   0.000000   0.000000   0.000000
    14  O    0.000000   0.000000   0.000000   0.000000   0.000000   0.000000
    15  C    0.000000   0.000000   0.000000   0.000000   0.000000   0.000000
    16  C    0.000000   0.000000   0.000000   0.000000   0.000000   0.000000
    17  C    0.348662  -0.031776  -0.039768  -0.034116  -0.022770   0.438804
    18  O   -0.059535   0.001308  -0.000630   0.003723   0.262313  -0.041627
    19  C    5.206013   0.381804   0.380101   0.373120  -0.003432  -0.057921
    20  H    0.381804   0.517147  -0.025242  -0.020524  -0.000264   0.004809
    21  H    0.380101  -0.025242   0.556251  -0.022941   0.003034  -0.004635
    22  H    0.373120  -0.020524  -0.022941   0.528876  -0.000017   0.001454
    23  H   -0.003432  -0.000264   0.003034  -0.000017   0.315511  -0.003286
    24  H   -0.057921   0.004809  -0.004635   0.001454  -0.003286   0.570686
    25  H    0.000000   0.000000   0.000000   0.000000   0.000000   0.000000
    26  H    0.000001   0.000000   0.000000   0.000000   0.000000   0.000000
    27  H    0.000000   0.000000   0.000000   0.000000   0.000000   0.000000
    28  H    0.000000   0.000000   0.000000   0.000000   0.000000   0.000000
    29  H    0.000000   0.000000   0.000000   0.000000   0.000000   0.000000
    30  H    0.000000   0.000000   0.000000   0.000000   0.000000   0.000000
    31  H    0.000000   0.000000   0.000000   0.000000   0.000000   0.000000
    32  H    0.000066   0.000380  -0.000003   0.000004  -0.000051   0.000060
    33  H    0.000371  -0.000014  -0.000014   0.000337  -0.000004   0.001862
    34  H    0.000000   0.000000   0.000000   0.000000   0.000000   0.000000
    35  H    0.000000   0.000000   0.000000   0.000000   0.000000   0.000000
    36  H    0.000000   0.000000   0.000000   0.000000   0.000000   0.000000
    37  H    0.000000   0.000000   0.000000   0.000000   0.000000   0.000000
    38  H    0.000000   0.000000   0.000000   0.000000   0.000000   0.000000
             25         26         27         28         29         30
     1  C    0.000000   0.000000   0.000000   0.000000  -0.000001   0.000000
     2  C    0.000000   0.000000   0.000000  -0.000001   0.000007   0.000000
     3  O    0.000000   0.000000   0.000000   0.000000  -0.000004   0.000000
     4  C   -0.000006   0.000001   0.000000  -0.000050   0.000120   0.000001
     5  C   -0.000004   0.000001   0.000000  -0.000012   0.000002   0.000000
     6  C    0.000007  -0.000037   0.000001  -0.000006   0.000001   0.000000
     7  C    0.000405  -0.000114   0.000101   0.000213  -0.000048  -0.000002
     8  C    0.000490   0.000170  -0.000041   0.001621  -0.000840  -0.000032
     9  C    0.000117  -0.000043   0.000002   0.000199  -0.000100   0.000152
    10  C   -0.003420  -0.003678   0.002926  -0.001891  -0.000320   0.002731
    11  C   -0.000017  -0.000011   0.000034  -0.038227  -0.041027  -0.037332
    12  C   -0.000001   0.000000   0.000001   0.387001   0.386769   0.389548
    13  N   -0.000028  -0.000035  -0.000062   0.000537   0.000386   0.001702
    14  O    0.000923   0.001068  -0.000487  -0.000050  -0.000058  -0.000079
    15  C   -0.035537  -0.035589  -0.036315  -0.000085   0.000025   0.000051
    16  C    0.387647   0.387703   0.385439  -0.000001   0.000000   0.000001
    17  C   -0.000001   0.000008   0.000000   0.000000   0.000000   0.000000
    18  O    0.000000   0.000013   0.000000   0.000000   0.000000   0.000000
    19  C    0.000000   0.000001   0.000000   0.000000   0.000000   0.000000
    20  H    0.000000   0.000000   0.000000   0.000000   0.000000   0.000000
    21  H    0.000000   0.000000   0.000000   0.000000   0.000000   0.000000
    22  H    0.000000   0.000000   0.000000   0.000000   0.000000   0.000000
    23  H    0.000000   0.000000   0.000000   0.000000   0.000000   0.000000
    24  H    0.000000   0.000000   0.000000   0.000000   0.000000   0.000000
    25  H    0.487138  -0.024088  -0.020759   0.000000   0.000000   0.000000
    26  H   -0.024088   0.486192  -0.021059   0.000000   0.000000   0.000000
    27  H   -0.020759  -0.021059   0.484166   0.000000   0.000000   0.000000
    28  H    0.000000   0.000000   0.000000   0.507741  -0.027411  -0.020964
    29  H    0.000000   0.000000   0.000000  -0.027411   0.529140  -0.021930
    30  H    0.000000   0.000000   0.000000  -0.020964  -0.021930   0.476096
    31  H   -0.000004   0.000000   0.000000  -0.000003   0.000426   0.000013
    32  H    0.000026   0.000570   0.000019   0.000001   0.000000   0.000000
    33  H    0.000000   0.000000   0.000000   0.000000   0.000000   0.000000
    34  H    0.000000   0.000000   0.000000   0.000000  -0.000024   0.000000
    35  H    0.000000   0.000000   0.000000   0.000003   0.000439   0.000001
    36  H    0.000000   0.000000   0.000000   0.000000   0.000000   0.000000
    37  H    0.000000   0.000000   0.000000   0.000000   0.000000   0.000000
    38  H    0.000000   0.000000   0.000000   0.000000   0.000000   0.000000
             31         32         33         34         35         36
     1  C    0.000063   0.000000  -0.000019  -0.038703  -0.037373   0.389096
     2  C    0.001821   0.000000  -0.000143   0.394338   0.391966  -0.036618
     3  O   -0.003747   0.000002   0.001121  -0.036337  -0.037099   0.001226
     4  C   -0.027147   0.000284  -0.025849  -0.001941  -0.001256  -0.000037
     5  C    0.002262   0.002532   0.375080  -0.000067   0.000149  -0.000024
     6  C    0.000226  -0.023838  -0.036820  -0.000001  -0.000010   0.000000
     7  C    0.002086   0.375977   0.003158  -0.000001  -0.000009   0.000000
     8  C   -0.030546  -0.034738  -0.000140  -0.000216  -0.000251   0.000000
     9  C    0.374632   0.002532   0.004494  -0.000478   0.001394  -0.000004
    10  C    0.000921   0.000053   0.000003  -0.000002  -0.000009   0.000000
    11  C    0.001753   0.000167   0.000000  -0.000002  -0.000006   0.000000
    12  C   -0.000789   0.000001   0.000000   0.000005   0.000032   0.000000
    13  N   -0.000046  -0.000009   0.000000   0.000000   0.000000   0.000000
    14  O   -0.000003  -0.000041   0.000000   0.000000   0.000000   0.000000
    15  C    0.000127   0.002064   0.000000   0.000000   0.000000   0.000000
    16  C    0.000003  -0.000995   0.000000   0.000000   0.000000   0.000000
    17  C    0.000006  -0.002002  -0.004637   0.000000   0.000000   0.000000
    18  O    0.000000   0.001888   0.000058   0.000000   0.000000   0.000000
    19  C    0.000000   0.000066   0.000371   0.000000   0.000000   0.000000
    20  H    0.000000   0.000380  -0.000014   0.000000   0.000000   0.000000
    21  H    0.000000  -0.000003  -0.000014   0.000000   0.000000   0.000000
    22  H    0.000000   0.000004   0.000337   0.000000   0.000000   0.000000
    23  H    0.000000  -0.000051  -0.000004   0.000000   0.000000   0.000000
    24  H    0.000000   0.000060   0.001862   0.000000   0.000000   0.000000
    25  H   -0.000004   0.000026   0.000000   0.000000   0.000000   0.000000
    26  H    0.000000   0.000570   0.000000   0.000000   0.000000   0.000000
    27  H    0.000000   0.000019   0.000000   0.000000   0.000000   0.000000
    28  H   -0.000003   0.000001   0.000000   0.000000   0.000003   0.000000
    29  H    0.000426   0.000000   0.000000  -0.000024   0.000439   0.000000
    30  H    0.000013   0.000000   0.000000   0.000000   0.000001   0.000000
    31  H    0.460769  -0.000103  -0.000110   0.000252  -0.000912   0.000001
    32  H   -0.000103   0.454919  -0.000104   0.000000   0.000000   0.000000
    33  H   -0.000110  -0.000104   0.469951   0.000016   0.000021   0.000007
    34  H    0.000252   0.000000   0.000016   0.561696  -0.044716   0.004218
    35  H   -0.000912   0.000000   0.000021  -0.044716   0.564393  -0.004511
    36  H    0.000001   0.000000   0.000007   0.004218  -0.004511   0.515991
    37  H   -0.000002   0.000000   0.000004  -0.004478   0.004190  -0.024591
    38  H    0.000009   0.000000   0.000000  -0.000301  -0.000494  -0.023463
             37         38
     1  C    0.389682   0.384635
     2  C   -0.036484  -0.038446
     3  O    0.001016   0.002721
     4  C   -0.000048  -0.000037
     5  C   -0.000016   0.000001
     6  C    0.000000   0.000000
     7  C    0.000000   0.000000
     8  C    0.000000   0.000000
     9  C   -0.000005   0.000002
    10  C    0.000000   0.000000
    11  C    0.000000   0.000000
    12  C    0.000000   0.000000
    13  N    0.000000   0.000000
    14  O    0.000000   0.000000
    15  C    0.000000   0.000000
    16  C    0.000000   0.000000
    17  C    0.000000   0.000000
    18  O    0.000000   0.000000
    19  C    0.000000   0.000000
    20  H    0.000000   0.000000
    21  H    0.000000   0.000000
    22  H    0.000000   0.000000
    23  H    0.000000   0.000000
    24  H    0.000000   0.000000
    25  H    0.000000   0.000000
    26  H    0.000000   0.000000
    27  H    0.000000   0.000000
    28  H    0.000000   0.000000
    29  H    0.000000   0.000000
    30  H    0.000000   0.000000
    31  H   -0.000002   0.000009
    32  H    0.000000   0.000000
    33  H    0.000004   0.000000
    34  H   -0.004478  -0.000301
    35  H    0.004190  -0.000494
    36  H   -0.024591  -0.023463
    37  H    0.513452  -0.023270
    38  H   -0.023270   0.536373
 Mulliken atomic charges:
              1
     1  C   -0.483697
     2  C   -0.018145
     3  O   -0.675949
     4  C    0.467982
     5  C   -0.300226
     6  C    0.033325
     7  C   -0.251912
     8  C    0.057873
     9  C   -0.314376
    10  C   -0.252312
    11  C    0.310958
    12  C   -0.512846
    13  N   -0.204291
    14  O   -0.510904
    15  C    0.459648
    16  C   -0.525161
    17  C    0.168313
    18  O   -0.755627
    19  C   -0.489490
    20  H    0.177506
    21  H    0.146433
    22  H    0.169980
    23  H    0.443253
    24  H    0.159622
    25  H    0.207110
    26  H    0.208930
    27  H    0.206034
    28  H    0.191386
    29  H    0.174451
    30  H    0.210045
    31  H    0.218043
    32  H    0.220340
    33  H    0.211371
    34  H    0.166743
    35  H    0.164059
    36  H    0.178710
    37  H    0.180550
    38  H    0.162269
 Sum of Mulliken charges=   0.00000
 Atomic charges with hydrogens summed into heavy atoms:
              1
     1  C    0.037832
     2  C    0.312657
     3  O   -0.675949
     4  C    0.467982
     5  C   -0.088855
     6  C    0.033325
     7  C   -0.031572
     8  C    0.057873
     9  C   -0.096333
    10  C   -0.252312
    11  C    0.310958
    12  C    0.063036
    13  N   -0.204291
    14  O   -0.510904
    15  C    0.459648
    16  C    0.096913
    17  C    0.327935
    18  O   -0.312374
    19  C    0.004429
    20  H    0.000000
    21  H    0.000000
    22  H    0.000000
    23  H    0.000000
    24  H    0.000000
    25  H    0.000000
    26  H    0.000000
    27  H    0.000000
    28  H    0.000000
    29  H    0.000000
    30  H    0.000000
    31  H    0.000000
    32  H    0.000000
    33  H    0.000000
    34  H    0.000000
    35  H    0.000000
    36  H    0.000000
    37  H    0.000000
    38  H    0.000000
 Sum of Mulliken charges=   0.00000
 Entering OneElI...
 OneElI was handed  6128419 working-precision words.
 Multipole integrals L=0 to 4 MinM= 0 MaxM= 0.
 Requested accuracy = 0.1000D-12
 PrsmSu:  NPrtUS=   1 ThrOK=F
 PRISM was handed     5704326 working-precision words and  5042 shell-pairs
 Electronic moments (au):
  -140.00000000    -1.64420364     0.20216598     0.01815341
 -3154.80379695 -2521.12928280  -523.28311868     3.37288653
    -5.06197571     1.45038950 -3418.05529187 -2784.16260610
  -353.04056000  6909.86210600  4748.74874784   935.21303195
  -830.52285125  -231.70462271  -687.22588100  2468.41381289
****************************** -7256.63984271-18268.91436984
   127.61844716 -5164.50013864 -5606.07596756  1859.33674285
   720.39226038-53911.65440005-11963.39141081-10706.97960101
  -612.99357482 -2318.93153186  2079.37062131
 Electronic spatial extent (au):  <R**2>=  6199.2162
 Nuclear    moments (au):
   140.00000000     0.00000000     0.00000000     0.00000000
  3057.99507807  2449.92119326   439.44632741     0.00000000
     0.00000000     0.00000000  3262.61376463  2834.42586037
   343.89765364 -6991.82755835 -4665.52256032  -970.27681540
   845.57352651   225.52541873   700.55614773 -2480.99400336
117726.63057838100366.56758339  5409.66053026 18637.71081779
  -417.68222014  4843.09098740  5696.63432410 -1879.13089470
  -772.74122347 50870.34619086  9850.50781860  8897.84505273
   591.83122922  2327.28285285 -2042.67907774
 Total      moments (au):
     0.00000000    -1.64420364     0.20216598     0.01815341
   -96.80871888   -71.20808953   -83.83679127     3.37288653
    -5.06197571     1.45038950  -155.44152724    50.26325427
    -9.14290636   -81.96545235    83.22618752   -35.06378345
    15.05067527    -6.17920398    13.33026673   -12.58019047
-12401.60708040 -7492.22930650 -1846.97931244   368.79644795
  -290.06377298  -321.40915124    90.55835654   -19.79415186
   -52.34896309 -3041.30820919 -2112.88359221 -1809.13454828
   -21.16234561     8.35132098    36.69154357
 Charge=     0.0000 electrons
 Dipole moment (field-independent basis, Debye):
    X=    -4.1791    Y=     0.5139    Z=     0.0461  Tot=     4.2109
 Quadrupole moment (field-independent basis, Debye-Ang):
   XX=  -130.2110   YY=   -95.7773   ZZ=  -112.7633
   XY=     4.5366   XZ=    -6.8085   YZ=     1.9508
 Traceless Quadrupole moment (field-independent basis, Debye-Ang):
   XX=   -17.2938   YY=    17.1399   ZZ=     0.1539
   XY=     4.5366   XZ=    -6.8085   YZ=     1.9508
 Octapole moment (field-independent basis, Debye-Ang**2):
  XXX=  -110.6373  YYY=    35.7754  ZZZ=    -6.5076  XYY=   -58.3398
  XXY=    59.2372  XXZ=   -24.9570  XZZ=    10.7125  YZZ=    -4.3981
  YYZ=     9.4880  XYZ=    -8.9541
 Hexadecapole moment (field-independent basis, Debye-Ang**3):
 XXXX= -4671.0395 YYYY= -2821.9326 ZZZZ=  -695.6609 XXXY=   138.9064
 XXXZ=  -109.2519 YYYX=  -121.0581 YYYZ=    34.1086 ZZZX=    -7.4554
 ZZZY=   -19.7171 XXYY= -1145.5024 XXZZ=  -795.8132 YYZZ=  -681.4068
 XXYZ=    -7.9708 YYXZ=     3.1455 ZZXY=    13.8198
 N-N= 1.419792899496D+03 E-N=-4.846153776051D+03  KE= 8.561013308397D+02
 Entering OneElI...
 OneElI was handed  5918488 working-precision words.
 Calculate electrostatic properties
    NBasis =   323  MinDer = 0  MaxDer = 0
    NGrid  =    38  NMatD  =   1
 Requested accuracy = 0.1000D-12
 PrsmSu:  NPrtUS=   1 ThrOK=F
 PRISM was handed     5531728 working-precision words and  4546 shell-pairs
 --------------------------------------------------------
       Center         ----      EFG at Nuclei      ----
                      3XX-RR        3YY-RR        3ZZ-RR
 --------------------------------------------------------
     1   Atom       -0.034523     -0.000701      0.035223
     2   Atom        0.189754     -0.400499      0.210745
     3   Atom       -0.119855     -1.536701      1.656555
     4   Atom        0.112596      0.176232     -0.288827
     5   Atom        0.086867      0.133443     -0.220310
     6   Atom        0.236155      0.128733     -0.364888
     7   Atom        0.123787      0.107860     -0.231647
     8   Atom        0.156170      0.193181     -0.349351
     9   Atom        0.098582      0.080942     -0.179524
    10   Atom        0.071474     -0.037950     -0.033524
    11   Atom        0.151292     -0.096502     -0.054790
    12   Atom        0.043339     -0.013719     -0.029620
    13   Atom        0.621498     -0.217714     -0.403784
    14   Atom        0.415167     -0.206798     -0.208369
    15   Atom        0.035163     -0.053602      0.018439
    16   Atom        0.084518     -0.031841     -0.052677
    17   Atom        0.024687     -0.123917      0.099230
    18   Atom        0.554505     -1.773462      1.218957
    19   Atom        0.012917     -0.018002      0.005085
    20   Atom       -0.218120      0.142731      0.075389
    21   Atom        0.043159     -0.174788      0.131629
    22   Atom        0.042910     -0.086744      0.043834
    23   Atom        0.086437     -0.330354      0.243917
    24   Atom       -0.213945      0.127514      0.086431
    25   Atom        0.038373      0.087761     -0.126134
    26   Atom        0.068706     -0.160622      0.091916
    27   Atom       -0.236661      0.126389      0.110272
    28   Atom        0.033151      0.004689     -0.037841
    29   Atom       -0.023194     -0.026617      0.049812
    30   Atom       -0.063531      0.025912      0.037619
    31   Atom        0.107399     -0.277159      0.169760
    32   Atom       -0.086426     -0.078112      0.164538
    33   Atom       -0.281804      0.110759      0.171045
    34   Atom        0.001447      0.107208     -0.108654
    35   Atom        0.047861      0.106900     -0.154761
    36   Atom       -0.001386      0.121298     -0.119911
    37   Atom        0.044196      0.121004     -0.165200
    38   Atom        0.125179     -0.274236      0.149056
 --------------------------------------------------------
                        XY            XZ            YZ
 --------------------------------------------------------
     1   Atom       -0.024096     -0.003769     -0.001469
     2   Atom        0.125626     -0.003146      0.011639
     3   Atom       -0.608072     -0.224144     -0.081824
     4   Atom       -0.259987     -0.019487      0.044691
     5   Atom        0.031666      0.009779      0.024147
     6   Atom        0.041570      0.011572      0.058446
     7   Atom       -0.013303      0.014837      0.027417
     8   Atom        0.004057      0.024486      0.052488
     9   Atom        0.025430      0.012050      0.024178
    10   Atom       -0.029615     -0.010383     -0.052604
    11   Atom       -0.034943     -0.022306     -0.317361
    12   Atom       -0.049240      0.042834      0.051814
    13   Atom       -0.650813      0.658246      0.454023
    14   Atom        0.425343     -0.357317      1.390526
    15   Atom        0.135945     -0.190911     -0.263409
    16   Atom       -0.005462      0.000551      0.107799
    17   Atom       -0.142297      0.134230      0.167641
    18   Atom        0.106720      0.888669      0.545530
    19   Atom        0.013105     -0.002187     -0.014783
    20   Atom       -0.033248     -0.153149     -0.017892
    21   Atom        0.186750      0.026044     -0.042378
    22   Atom       -0.156924      0.100820      0.145560
    23   Atom        0.303495      0.090966     -0.107240
    24   Atom       -0.012277     -0.146399      0.000135
    25   Atom       -0.078033     -0.171490     -0.112976
    26   Atom        0.155353      0.063701     -0.112230
    27   Atom       -0.077307      0.108201      0.028387
    28   Atom        0.122988      0.147676     -0.153131
    29   Atom       -0.175575     -0.123802     -0.119444
    30   Atom        0.153138     -0.144209      0.115307
    31   Atom        0.112620      0.007799     -0.043301
    32   Atom       -0.225599     -0.027740     -0.035862
    33   Atom        0.111974     -0.001052     -0.004224
    34   Atom        0.053520      0.191123     -0.073863
    35   Atom        0.044409     -0.172122      0.079825
    36   Atom        0.056047      0.192800     -0.083298
    37   Atom        0.045350     -0.172049      0.089678
    38   Atom        0.072056     -0.001520      0.004595
 --------------------------------------------------------


 ---------------------------------------------------------------------------------
              Nuclear Quadrupole in Principal Axis System
[...]
 9108 Fit      -0.004482
 9109 Fit      -0.005913
 9110 Fit      -0.010382
 9111 Fit      -0.011602
 9112 Fit      -0.012240
 9113 Fit      -0.012128
 9114 Fit      -0.011213
 9115 Fit       0.002131
 9116 Fit       0.001212
 9117 Fit       0.000206
 9118 Fit      -0.000926
 9119 Fit      -0.002217
 9120 Fit      -0.003684
 9121 Fit      -0.005314
 9122 Fit      -0.007053
 9123 Fit      -0.008796
 9124 Fit      -0.014640
 9125 Fit      -0.016397
 9126 Fit      -0.017425
 9127 Fit       0.001442
 9128 Fit       0.000277
 9129 Fit      -0.000983
 9130 Fit      -0.002395
 9131 Fit      -0.004009
 9132 Fit      -0.005852
 9133 Fit      -0.007921
 9134 Fit      -0.010166
 9135 Fit      -0.012471
 9136 Fit       0.000387
 9137 Fit      -0.001047
 9138 Fit      -0.002599
 9139 Fit      -0.004348
 9140 Fit      -0.006359
 9141 Fit      -0.008677
 9142 Fit      -0.011316
 9143 Fit      -0.014241
 9144 Fit      -0.017338
 9145 Fit      -0.000653
 9146 Fit      -0.002413
 9147 Fit      -0.004321
 9148 Fit      -0.006487
 9149 Fit      -0.009007
 9150 Fit      -0.011963
 9151 Fit      -0.015413
 9152 Fit      -0.019364
 9153 Fit      -0.003161
 9154 Fit      -0.005515
 9155 Fit      -0.008190
 9156 Fit      -0.011353
 9157 Fit      -0.015168
 9158 Fit      -0.009416
 9159 Fit      -0.013324
 9160 Fit       0.016210
 9161 Fit       0.014884
 9162 Fit       0.012929
 9163 Fit       0.010826
 9164 Fit       0.014546
 9165 Fit       0.012327
 9166 Fit       0.009994
 9167 Fit       0.007357
 9168 Fit       0.004262
 9169 Fit       0.012433
 9170 Fit       0.009960
 9171 Fit       0.007295
 9172 Fit       0.004269
 9173 Fit       0.010074
 9174 Fit       0.007454
 9175 Fit       0.004620
 9176 Fit       0.001466
 9177 Fit       0.008515
 9178 Fit       0.005757
 9179 Fit       0.002838
 9180 Fit      -0.000295
 9181 Fit       0.006719
 9182 Fit       0.003956
 9183 Fit       0.001119
 9184 Fit       0.005094
 9185 Fit       0.002324
 9186 Fit      -0.003030
 9187 Fit      -0.004999
 9188 Fit      -0.003664
 9189 Fit      -0.002518
 9190 Fit      -0.001482
 9191 Fit      -0.005737
 9192 Fit      -0.004191
 9193 Fit      -0.003057
 9194 Fit      -0.002364
 9195 Fit      -0.001924
 9196 Fit      -0.006445
 9197 Fit      -0.004555
 9198 Fit      -0.003330
 9199 Fit      -0.002757
 9200 Fit      -0.002734
 9201 Fit      -0.003086
 9202 Fit      -0.004608
 9203 Fit      -0.003349
 9204 Fit      -0.002862
 9205 Fit      -0.003054
 9206 Fit      -0.003853
 9207 Fit      -0.005202
 9208 Fit      -0.003956
 9209 Fit      -0.002867
 9210 Fit      -0.002654
 9211 Fit      -0.003208
 9212 Fit      -0.004502
 9213 Fit      -0.006601
 9214 Fit      -0.001856
 9215 Fit      -0.002122
 9216 Fit      -0.003126
 9217 Fit      -0.004890
 9218 Fit      -0.007569
 9219 Fit      -0.001308
 9220 Fit      -0.002999
 9221 Fit      -0.005408
 9222 Fit      -0.008804
 9223 Fit      -0.003397
 9224 Fit      -0.006847
 9225 Fit      -0.004673
 9226 Fit      -0.009441
 9227 Fit       0.002236
 9228 Fit       0.006773
 9229 Fit       0.004189
 9230 Fit       0.001428
 9231 Fit      -0.001733
 9232 Fit       0.009129
 9233 Fit       0.006878
 9234 Fit       0.004547
 9235 Fit       0.001928
 9236 Fit      -0.001192
 9237 Fit      -0.005056
 9238 Fit       0.010863
 9239 Fit       0.008895
 9240 Fit       0.006909
 9241 Fit       0.004762
 9242 Fit       0.002287
 9243 Fit      -0.000728
 9244 Fit      -0.004579
 9245 Fit       0.012761
 9246 Fit       0.010777
 9247 Fit       0.008904
 9248 Fit       0.006993
 9249 Fit       0.004891
 9250 Fit       0.002422
 9251 Fit      -0.000652
 9252 Fit      -0.004696
 9253 Fit       0.012437
 9254 Fit       0.010505
 9255 Fit       0.008709
 9256 Fit       0.006873
 9257 Fit       0.004837
 9258 Fit       0.002421
 9259 Fit      -0.000616
 9260 Fit      -0.004659
 9261 Fit       0.011040
 9262 Fit       0.009250
 9263 Fit       0.007510
 9264 Fit       0.005646
 9265 Fit       0.003488
 9266 Fit       0.000833
 9267 Fit      -0.002623
 9268 Fit       0.009732
 9269 Fit       0.007999
 9270 Fit       0.006229
 9271 Fit       0.004238
 9272 Fit       0.001833
 9273 Fit      -0.001249
 9274 Fit      -0.005433
 9275 Fit       0.009087
 9276 Fit       0.007390
 9277 Fit       0.005647
 9278 Fit       0.003662
 9279 Fit       0.001231
 9280 Fit      -0.001923
 9281 Fit      -0.006244
 9282 Fit       0.007927
 9283 Fit       0.006388
 9284 Fit       0.004750
 9285 Fit       0.002837
 9286 Fit       0.000460
 9287 Fit      -0.002635
 9288 Fit      -0.006845
 9289 Fit       0.006469
 9290 Fit       0.005179
 9291 Fit       0.003674
 9292 Fit       0.001813
 9293 Fit      -0.000582
 9294 Fit      -0.003754
 9295 Fit      -0.008059
 9296 Fit       0.004095
 9297 Fit       0.003388
 9298 Fit       0.002195
 9299 Fit       0.000494
 9300 Fit      -0.001828
 9301 Fit      -0.004942
 9302 Fit       0.000694
 9303 Fit      -0.000307
 9304 Fit      -0.002134
 9305 Fit      -0.004797
 9306 Fit       0.013924
 9307 Fit       0.014480
 9308 Fit       0.012970
 9309 Fit       0.012588
 9310 Fit       0.012426
 9311 Fit       0.012541
 9312 Fit       0.013226
 9313 Fit       0.012582
 9314 Fit       0.012033
 9315 Fit       0.011577
 9316 Fit       0.011218
 9317 Fit       0.010960
 9318 Fit       0.010786
 9319 Fit       0.012261
 9320 Fit       0.011795
 9321 Fit       0.011309
 9322 Fit       0.010828
 9323 Fit       0.010354
 9324 Fit       0.009872
 9325 Fit       0.009328
 9326 Fit       0.008587
 9327 Fit       0.006091
 9328 Fit       0.011222
 9329 Fit       0.010994
 9330 Fit       0.010636
 9331 Fit       0.010201
 9332 Fit       0.009704
 9333 Fit       0.009130
 9334 Fit       0.008427
 9335 Fit       0.007482
 9336 Fit       0.005573
 9337 Fit       0.003646
 9338 Fit       0.010190
 9339 Fit       0.010062
 9340 Fit       0.009751
 9341 Fit       0.009301
 9342 Fit       0.008718
 9343 Fit       0.007966
 9344 Fit       0.006964
 9345 Fit       0.005386
 9346 Fit       0.003691
 9347 Fit       0.001701
 9348 Fit      -0.000261
 9349 Fit      -0.001774
 9350 Fit      -0.002666
 9351 Fit      -0.003064
 9352 Fit       0.009106
 9353 Fit       0.009283
 9354 Fit       0.009198
 9355 Fit       0.008889
 9356 Fit       0.008382
 9357 Fit       0.007667
 9358 Fit       0.006694
 9359 Fit       0.005328
 9360 Fit       0.003789
 9361 Fit       0.002144
 9362 Fit       0.000751
 9363 Fit      -0.000095
 9364 Fit      -0.000278
 9365 Fit       0.000331
 9366 Fit       0.001826
 9367 Fit       0.007575
 9368 Fit       0.008097
 9369 Fit       0.008385
 9370 Fit       0.008376
 9371 Fit       0.008066
 9372 Fit       0.007467
 9373 Fit       0.006564
 9374 Fit       0.005304
 9375 Fit       0.003837
 9376 Fit       0.002547
 9377 Fit       0.001959
 9378 Fit       0.002378
 9379 Fit       0.003730
 9380 Fit       0.005350
 9381 Fit       0.006558
 9382 Fit       0.007265
 9383 Fit       0.007504
 9384 Fit       0.007248
 9385 Fit       0.006501
 9386 Fit       0.005278
 9387 Fit       0.004012
 9388 Fit       0.003966
 9389 Fit       0.005253
 9390 Fit       0.006323
 9391 Fit       0.006325
 9392 Fit       0.005251
 9393 Fit       0.006945
 9394 Fit       0.007599
 9395 Fit       0.005905
 9396 Fit       0.005316
 9397 Fit       0.006444
 9398 Fit       0.007780
 9399 Fit       0.008324
 9400 Fit       0.008477
 9401 Fit       0.006570
 9402 Fit       0.004522
 9403 Fit       0.003332
 9404 Fit       0.003349
 9405 Fit       0.004477
 9406 Fit       0.006093
 9407 Fit       0.007485
 9408 Fit       0.008481
 9409 Fit       0.009148
 9410 Fit       0.009499
 9411 Fit       0.009405
 9412 Fit       0.004914
 9413 Fit       0.002549
 9414 Fit       0.001119
 9415 Fit       0.000581
 9416 Fit       0.000877
 9417 Fit       0.002130
 9418 Fit       0.004058
 9419 Fit       0.005959
 9420 Fit       0.007369
 9421 Fit       0.008345
 9422 Fit       0.009090
 9423 Fit       0.009680
 9424 Fit       0.010137
 9425 Fit       0.010492
 9426 Fit       0.010739
 9427 Fit       0.010674
 9428 Fit       0.009426
 9429 Fit       0.009999
 9430 Fit       0.010473
 9431 Fit       0.010865
 9432 Fit       0.011244
 9433 Fit       0.011689
 9434 Fit       0.012217
 9435 Fit       0.010668
 9436 Fit       0.011091
 9437 Fit       0.011424
 9438 Fit       0.011763
 9439 Fit       0.012226
 9440 Fit       0.012959
 9441 Fit       0.011399
 9442 Fit       0.011745
 9443 Fit       0.011978
 9444 Fit       0.012213
 9445 Fit       0.012571
 9446 Fit       0.013204
 9447 Fit       0.012440
 9448 Fit       0.012574
 9449 Fit       0.012651
 9450 Fit       0.012800
 9451 Fit       0.013151
 9452 Fit       0.013881
 9453 Fit       0.013376
 9454 Fit       0.013280
 9455 Fit       0.013336
 9456 Fit       0.013657
 9457 Fit       0.014413
 9458 Fit       0.013922
 9459 Fit       0.013845
 9460 Fit       0.014071
 9461 Fit       0.014751
 9462 Fit       0.016123
 9463 Fit       0.014477
 9464 Fit       0.014956
 9465 Fit       0.016133
 9466 Fit       0.005018
 9467 Fit       0.005277
 9468 Fit       0.004171
 9469 Fit       0.004148
 9470 Fit       0.004908
 9471 Fit       0.005514
 9472 Fit       0.005786
 9473 Fit       0.005834
 9474 Fit       0.004260
 9475 Fit       0.002820
 9476 Fit       0.002506
 9477 Fit       0.003159
 9478 Fit       0.004079
 9479 Fit       0.004846
 9480 Fit       0.005376
 9481 Fit       0.005759
 9482 Fit       0.006122
 9483 Fit       0.006478
 9484 Fit       0.006554
 9485 Fit       0.002528
 9486 Fit       0.000705
 9487 Fit       0.000235
 9488 Fit       0.000900
 9489 Fit       0.002042
 9490 Fit       0.003175
 9491 Fit       0.004096
 9492 Fit       0.004768
 9493 Fit       0.005228
 9494 Fit       0.005549
 9495 Fit       0.005823
 9496 Fit       0.006142
 9497 Fit       0.006574
 9498 Fit       0.007123
 9499 Fit       0.007642
 9500 Fit      -0.003080
 9501 Fit      -0.001930
 9502 Fit      -0.000285
 9503 Fit       0.001299
 9504 Fit       0.002611
 9505 Fit       0.003618
 9506 Fit       0.004353
 9507 Fit       0.004866
 9508 Fit       0.005215
 9509 Fit       0.005464
 9510 Fit       0.005682
 9511 Fit       0.005944
 9512 Fit       0.006319
 9513 Fit       0.006866
 9514 Fit      -0.005335
 9515 Fit      -0.002772
 9516 Fit      -0.000568
 9517 Fit       0.001167
 9518 Fit       0.002481
 9519 Fit       0.003453
 9520 Fit       0.004154
 9521 Fit       0.004644
 9522 Fit       0.004980
 9523 Fit       0.005216
 9524 Fit       0.005409
 9525 Fit       0.005621
 9526 Fit       0.005917
 9527 Fit      -0.005871
 9528 Fit      -0.002858
 9529 Fit      -0.000605
 9530 Fit       0.001064
 9531 Fit       0.002299
 9532 Fit       0.003209
 9533 Fit       0.003870
 9534 Fit       0.004341
 9535 Fit       0.004672
 9536 Fit       0.004907
 9537 Fit       0.005096
 9538 Fit       0.005289
 9539 Fit       0.005545
 9540 Fit      -0.007009
 9541 Fit      -0.003559
 9542 Fit      -0.001130
 9543 Fit       0.000615
 9544 Fit       0.001886
 9545 Fit       0.002815
 9546 Fit       0.003491
 9547 Fit       0.003976
 9548 Fit       0.004322
 9549 Fit       0.004575
 9550 Fit       0.004783
 9551 Fit       0.005000
 9552 Fit      -0.007644
 9553 Fit      -0.004056
 9554 Fit      -0.001589
 9555 Fit       0.000164
 9556 Fit       0.001438
 9557 Fit       0.002372
 9558 Fit       0.003057
 9559 Fit       0.003557
 9560 Fit       0.003924
 9561 Fit       0.004203
 9562 Fit       0.004442
 9563 Fit      -0.006560
 9564 Fit      -0.003416
 9565 Fit      -0.001245
 9566 Fit       0.000305
 9567 Fit       0.001435
 9568 Fit       0.002266
 9569 Fit       0.002881
 9570 Fit       0.003338
 9571 Fit       0.003690
 9572 Fit       0.003984
 9573 Fit      -0.001199
 9574 Fit       0.000294
 9575 Fit       0.001372
 9576 Fit       0.002160
 9577 Fit       0.002744
 9578 Fit      -0.003699
 9579 Fit      -0.001609
 9580 Fit      -0.000110
 9581 Fit       0.000984
 9582 Fit      -0.006226
 9583 Fit      -0.003425
 9584 Fit      -0.001432
 9585 Fit       0.000019
 9586 Fit       0.001089
 9587 Fit       0.001882
 9588 Fit       0.002475
 9589 Fit       0.002924
 9590 Fit      -0.006528
 9591 Fit      -0.003610
 9592 Fit      -0.001503
 9593 Fit       0.000041
 9594 Fit       0.001182
 9595 Fit       0.002026
 9596 Fit       0.002648
 9597 Fit       0.003107
 9598 Fit       0.003451
 9599 Fit       0.003730
 9600 Fit      -0.005461
 9601 Fit      -0.002842
 9602 Fit      -0.000876
 9603 Fit       0.000594
 9604 Fit       0.001687
 9605 Fit       0.002493
 9606 Fit       0.003080
 9607 Fit       0.003503
 9608 Fit       0.003809
 9609 Fit       0.004046
 9610 Fit       0.004265
 9611 Fit      -0.006612
 9612 Fit      -0.004134
 9613 Fit      -0.001976
 9614 Fit      -0.000236
 9615 Fit       0.001117
 9616 Fit       0.002144
 9617 Fit       0.002907
 9618 Fit       0.003462
 9619 Fit       0.003854
 9620 Fit       0.004131
 9621 Fit       0.004336
 9622 Fit       0.004519
 9623 Fit       0.004733
 9624 Fit      -0.004611
 9625 Fit      -0.003285
 9626 Fit      -0.001607
 9627 Fit      -0.000009
 9628 Fit       0.001334
 9629 Fit       0.002390
 9630 Fit       0.003183
 9631 Fit       0.003753
 9632 Fit       0.004148
 9633 Fit       0.004416
 9634 Fit       0.004608
 9635 Fit       0.004780
 9636 Fit       0.004990
 9637 Fit       0.005293
 9638 Fit       0.000368
 9639 Fit      -0.001130
 9640 Fit      -0.001411
 9641 Fit      -0.000739
 9642 Fit       0.000382
 9643 Fit       0.001554
 9644 Fit       0.002574
 9645 Fit       0.003376
 9646 Fit       0.003961
 9647 Fit       0.004362
 9648 Fit       0.004630
 9649 Fit       0.004821
 9650 Fit       0.004998
 9651 Fit       0.005221
 9652 Fit       0.005537
 9653 Fit       0.005662
 9654 Fit       0.004249
 9655 Fit       0.002545
 9656 Fit       0.001283
 9657 Fit       0.000923
 9658 Fit       0.001366
 9659 Fit       0.002201
 9660 Fit       0.003071
 9661 Fit       0.003791
 9662 Fit       0.004313
 9663 Fit       0.004660
 9664 Fit       0.004896
 9665 Fit       0.005096
 9666 Fit       0.005333
 9667 Fit       0.005646
 9668 Fit       0.006022
 9669 Fit       0.006341
 9670 Fit       0.006333
 9671 Fit       0.004930
 9672 Fit       0.003797
 9673 Fit       0.002791
 9674 Fit       0.002582
 9675 Fit       0.003079
 9676 Fit       0.003789
 9677 Fit       0.004378
 9678 Fit       0.004769
 9679 Fit       0.005038
 9680 Fit       0.005282
 9681 Fit       0.005504
 9682 Fit       0.005501
 9683 Fit       0.004587
 9684 Fit       0.003799
 9685 Fit       0.003822
 9686 Fit       0.004407
 9687 Fit       0.004841
 9688 Fit       0.004998
 9689 Fit       0.004451
 9690 Fit       0.007697
 9691 Fit       0.008559
 9692 Fit       0.009591
 9693 Fit       0.006681
 9694 Fit       0.007343
 9695 Fit       0.008068
 9696 Fit       0.008855
 9697 Fit       0.009764
 9698 Fit       0.010908
 9699 Fit       0.006291
 9700 Fit       0.006919
 9701 Fit       0.007587
 9702 Fit       0.008270
 9703 Fit       0.008978
 9704 Fit       0.009763
 9705 Fit       0.010715
 9706 Fit       0.011978
 9707 Fit       0.005967
 9708 Fit       0.006572
 9709 Fit       0.007208
 9710 Fit       0.007843
 9711 Fit       0.008469
 9712 Fit       0.009099
 9713 Fit       0.009770
 9714 Fit       0.010551
 9715 Fit       0.011545
 9716 Fit       0.012900
 9717 Fit       0.005807
 9718 Fit       0.006433
 9719 Fit       0.007078
 9720 Fit       0.007712
 9721 Fit       0.008324
 9722 Fit       0.008917
 9723 Fit       0.009514
 9724 Fit       0.010162
 9725 Fit       0.010932
 9726 Fit       0.011934
 9727 Fit       0.013320
 9728 Fit       0.005662
 9729 Fit       0.006288
 9730 Fit       0.006926
 9731 Fit       0.007550
 9732 Fit       0.008147
 9733 Fit       0.008714
 9734 Fit       0.009263
 9735 Fit       0.009823
 9736 Fit       0.010441
 9737 Fit       0.011192
 9738 Fit       0.012181
 9739 Fit       0.013550
 9740 Fit       0.005895
 9741 Fit       0.006525
 9742 Fit       0.007150
 9743 Fit       0.007752
 9744 Fit       0.008321
 9745 Fit       0.008857
 9746 Fit       0.009376
 9747 Fit       0.009906
 9748 Fit       0.010494
 9749 Fit       0.011212
 9750 Fit       0.012158
 9751 Fit       0.013468
 9752 Fit       0.005632
 9753 Fit       0.006264
 9754 Fit       0.006901
 9755 Fit       0.007518
 9756 Fit       0.008100
 9757 Fit       0.008645
 9758 Fit       0.009164
 9759 Fit       0.009681
 9760 Fit       0.010241
 9761 Fit       0.010910
 9762 Fit       0.011785
 9763 Fit       0.012996
 9764 Fit       0.005737
 9765 Fit       0.006375
 9766 Fit       0.007014
 9767 Fit       0.007628
 9768 Fit       0.008203
 9769 Fit       0.008743
 9770 Fit       0.009265
 9771 Fit       0.009806
 9772 Fit       0.010427
 9773 Fit       0.011219
 9774 Fit       0.012308
 9775 Fit       0.005836
 9776 Fit       0.006457
 9777 Fit       0.007077
 9778 Fit       0.007672
 9779 Fit       0.008231
 9780 Fit       0.008763
 9781 Fit       0.009294
 9782 Fit       0.009877
 9783 Fit       0.010590
 9784 Fit       0.011548
 9785 Fit       0.012913
 9786 Fit       0.006075
 9787 Fit       0.006703
 9788 Fit       0.007324
 9789 Fit       0.007915
 9790 Fit       0.008482
 9791 Fit       0.009056
 9792 Fit       0.009703
 9793 Fit       0.010524
 9794 Fit       0.011663
 9795 Fit       0.006330
 9796 Fit       0.006950
 9797 Fit       0.007563
 9798 Fit       0.008160
 9799 Fit       0.008777
 9800 Fit       0.009489
 9801 Fit       0.010408
 9802 Fit       0.006412
 9803 Fit       0.007044
 9804 Fit       0.007687
 9805 Fit       0.008356
 9806 Fit       0.009118
 9807 Fit       0.007066
 -----------------------------------------------------------------
 Leave Link  602 at Wed Jun  8 11:31:04 2016, MaxMem=    6291456 cpu:       6.4

 Test job not archived.
 1\1\GINC-COMPUTE-2-8\FOpt\RHF\6-31G(d)\C15H19N1O3\DAVE\08-Jun-2016\0\\
 #HF/6-31G* SCF=tight Test Pop=MK iop(6/33=2) iop(6/42=6) opt\\remark l
 ine goes here\\0,1\C,5.3303399629,11.048871951,-6.7619530253\C,4.00308
 241,10.6116644326,-7.3474880988\O,4.2035729321,10.3696423485,-8.717658
 4366\C,3.1798440327,9.9628637727,-9.4947257068\C,3.4857319124,9.772204
 2547,-10.8405686157\C,2.5150952541,9.3606443643,-11.729065398\C,1.2170
 964107,9.1339137051,-11.2737544715\C,0.9013976309,9.3312482548,-9.9409
 877976\C,1.8898353433,9.748036717,-9.0447157534\C,-0.4821060667,9.1090
 994311,-9.4568722173\C,-0.9365294863,8.1993094998,-8.4371886408\C,-0.1
 279299042,7.2425063945,-7.6169702301\N,-2.208364533,8.2644981435,-8.29
 25226386\O,-2.650540963,9.2019093455,-9.1817968879\C,-1.6272296954,9.6
 903051235,-9.8652483673\C,-1.9420520321,10.7386643242,-10.8770977402\C
 ,2.8845742113,9.1070619391,-13.1774081905\O,1.7625680014,9.3970675029,
 -13.9745881969\C,3.3461373989,7.6659875476,-13.3947946788\H,2.55031270
 91,6.9749459425,-13.1400730539\H,3.6205016586,7.5056243752,-14.4352518
 886\H,4.2115327765,7.4381368595,-12.7826630452\H,1.9633957045,9.204533
 39,-14.8799922879\H,3.6983471421,9.7790918825,-13.4403289954\H,-1.0340
 347144,11.124391507,-11.3183642879\H,-2.5664577744,10.3280921654,-11.6
 633081738\H,-2.4863072304,11.5522514977,-10.41056566\H,0.4819060488,6.
 6147021379,-8.256950721\H,0.5383517501,7.7716084617,-6.944753999\H,-0.
 7867007498,6.6166690701,-7.0302078262\H,1.6262640768,9.919364354,-8.01
 97621429\H,0.4627618261,8.808041883,-11.9627343054\H,4.4941489677,9.96
 21966203,-11.1618354276\H,3.2519778485,11.3842343556,-7.2137446066\H,3
 .6481760078,9.7085448629,-6.8598519427\H,6.0773502908,10.2750343723,-6
 .895443636\H,5.6809989208,11.95114103,-7.2493303241\H,5.2239519208,11.
 2478961797,-5.7004325837\\Version=AM64L-G03RevD.02\State=1-A\HF=-858.0
 696773\RMSD=6.434e-09\RMSF=5.282e-06\Thermal=0.\Dipole=1.5663729,0.183
 2441,-0.5457694\PG=C01 [X(C15H19N1O3)]\\@


 I DON'T PRETEND TO UNDERSTAND THE UNIVERSE --
 IT'S A GREAT DEAL BIGGER THAN I AM.
       -- ATTR. TO WILLIAM ALLINGHAM (1828-89)
 Job cpu time:  0 days  1 hours 54 minutes 50.3 seconds.
 File lengths (MBytes):  RWF=     78 Int=      0 D2E=      0 Chk=     13 Scr=      1
 Normal termination of Gaussian 03 at Wed Jun  8 11:31:04 2016.
