 Entering Gaussian System, Link 0=/share/apps/g03/g03
 Initial command:
 /share/apps//g03/l1.exe /state/partition1/mmpbsa.6/Gau-21598.inp -scrdir=/state/partition1/mmpbsa.6/
 Entering Link 1 = /share/apps//g03/l1.exe PID=     21599.
  
 Copyright (c) 1988,1990,1992,1993,1995,1998,2003,2004, Gaussian, Inc.
                  All Rights Reserved.
  
 This is the Gaussian(R) 03 program.  It is based on the
 the Gaussian(R) 98 system (copyright 1998, Gaussian, Inc.),
 the Gaussian(R) 94 system (copyright 1995, Gaussian, Inc.),
 the Gaussian 92(TM) system (copyright 1992, Gaussian, Inc.),
 the Gaussian 90(TM) system (copyright 1990, Gaussian, Inc.),
 the Gaussian 88(TM) system (copyright 1988, Gaussian, Inc.),
 the Gaussian 86(TM) system (copyright 1986, Carnegie Mellon
 University), and the Gaussian 82(TM) system (copyright 1983,
 Carnegie Mellon University). Gaussian is a federally registered
 trademark of Gaussian, Inc.
  
 This software contains proprietary and confidential information,
 including trade secrets, belonging to Gaussian, Inc.
  
 This software is provided under written license and may be
 used, copied, transmitted, or stored only in accord with that
 written license.
  
 The following legend is applicable only to US Government
 contracts under FAR:
  
                    RESTRICTED RIGHTS LEGEND
  
 Use, reproduction and disclosure by the US Government is
 subject to restrictions as set forth in subparagraphs (a)
 and (c) of the Commercial Computer Software - Restricted
 Rights clause in FAR 52.227-19.
  
 Gaussian, Inc.
 340 Quinnipiac St., Bldg. 40, Wallingford CT 06492
  
  
 ---------------------------------------------------------------
 Warning -- This program may not be used in any manner that
 competes with the business of Gaussian, Inc. or will provide
 assistance to any competitor of Gaussian, Inc.  The licensee
 of this program is prohibited from giving any competitor of
 Gaussian, Inc. access to this program.  By using this program,
 the user acknowledges that Gaussian, Inc. is engaged in the
 business of creating and licensing software in the field of
 computational chemistry and represents and warrants to the
 licensee that it is not a competitor of Gaussian, Inc. and that
 it will not use this program in any manner prohibited above.
 ---------------------------------------------------------------
  

 Cite this work as:
 Gaussian 03, Revision D.02,
 M. J. Frisch, G. W. Trucks, H. B. Schlegel, G. E. Scuseria, 
 M. A. Robb, J. R. Cheeseman, J. A. Montgomery, Jr., T. Vreven, 
 K. N. Kudin, J. C. Burant, J. M. Millam, S. S. Iyengar, J. Tomasi, 
 V. Barone, B. Mennucci, M. Cossi, G. Scalmani, N. Rega, 
 G. A. Petersson, H. Nakatsuji, M. Hada, M. Ehara, K. Toyota, 
 R. Fukuda, J. Hasegawa, M. Ishida, T. Nakajima, Y. Honda, O. Kitao, 
 H. Nakai, M. Klene, X. Li, J. E. Knox, H. P. Hratchian, J. B. Cross, 
 V. Bakken, C. Adamo, J. Jaramillo, R. Gomperts, R. E. Stratmann, 
 O. Yazyev, A. J. Austin, R. Cammi, C. Pomelli, J. W. Ochterski, 
 P. Y. Ayala, K. Morokuma, G. A. Voth, P. Salvador, J. J. Dannenberg, 
 V. G. Zakrzewski, S. Dapprich, A. D. Daniels, M. C. Strain, 
 O. Farkas, D. K. Malick, A. D. Rabuck, K. Raghavachari, 
 J. B. Foresman, J. V. Ortiz, Q. Cui, A. G. Baboul, S. Clifford, 
 J. Cioslowski, B. B. Stefanov, G. Liu, A. Liashenko, P. Piskorz, 
 I. Komaromi, R. L. Martin, D. J. Fox, T. Keith, M. A. Al-Laham, 
 C. Y. Peng, A. Nanayakkara, M. Challacombe, P. M. W. Gill, 
 B. Johnson, W. Chen, M. W. Wong, C. Gonzalez, and J. A. Pople, 
 Gaussian, Inc., Wallingford CT, 2004.
 
 ******************************************
 Gaussian 03:  AM64L-G03RevD.02  1-Mar-2006
                 8-Jun-2016 
 ******************************************
 %chk=molecule
 ------------------------------------------------------------
 #HF/6-31G* SCF=tight Test Pop=MK iop(6/33=2) iop(6/42=6) opt
 ------------------------------------------------------------
 1/18=20,38=1/1,3;
 2/9=110,17=6,18=5,40=1/2;
 3/5=1,6=6,7=1,11=9,16=1,25=1,30=1/1,2,3;
 4//1;
 5/5=2,32=2,38=5/2;
 6/7=2,8=2,9=2,10=2,15=8,20=1,28=1,33=2,42=6/1,2;
 7//1,2,3,16;
 1/18=20/3(3);
 2/9=110/2;
 6/7=2,8=2,9=2,10=2,15=8,19=2,20=1,28=1,33=2,42=6/1,2;
 99//99;
 2/9=110/2;
 3/5=1,6=6,7=1,11=9,16=1,25=1,30=1/1,2,3;
 4/5=5,16=3/1;
 5/5=2,32=2,38=5/2;
 7//1,2,3,16;
 1/18=20/3(-5);
 2/9=110/2;
 6/7=2,8=2,9=2,10=2,15=8,19=2,20=1,28=1,33=2,42=6/1,2;
 99/9=1/99;
 ---------------------
 remark line goes here
 ---------------------
 Symbolic Z-matrix:
 Charge =  0 Multiplicity = 1
 O                     7.672     11.153   -6.631 
 C                     7.483     10.465   -5.414 
 C                     6.665     11.285   -7.554 
 C                     6.866     12.09    -8.686 
 C                     5.905     12.273   -9.621 
 N                     2.34      11.21    -10.18 
 C                     7.419     13.615   -10.974 
 O                     6.112     13.029   -10.769 
 C                     4.638     11.681   -9.496 
 O                    -2.818     7.958    -8.648 
 N                     3.193     10.289   -8.142 
 C                     3.575     11.85    -10.444 
 C                     2.2       10.469   -9.047 
 O                     3.64      12.549   -11.476 
 C                     0.902     9.818    -8.805 
 C                     0.739     8.599    -8.114 
 C                    -0.507     7.987    -8.055 
 C                    -0.564     6.659    -7.37 
 C                    -1.642     8.603    -8.647 
 C                    -1.512     9.832    -9.28 
 C                    -2.725     10.478   -9.879 
 C                    -0.273     10.428   -9.366 
 C                     4.461     10.874   -8.333 
 C                     5.439     10.663   -7.376 
 H                     5.252     10.032   -6.515 
 H                    -0.182     11.383   -9.87 
 H                    -3.15      9.817    -10.649 
 H                    -3.474     10.653   -9.092 
 H                    -2.442     11.438   -10.336 
 H                    -1.269     6.711    -6.528 
 H                    -0.9       5.893    -8.084 
 H                     0.437     6.397    -6.996 
 H                     1.59      8.137    -7.627 
 H                    -2.73      7.139    -8.174 
 H                     7.651     14.294   -10.14 
 H                     8.175     12.818   -11.018 
 H                     7.424     14.178   -11.918 
 H                     1.577     11.301   -10.82 
 H                     7.824     12.581   -8.816 
 H                     6.683     10.953   -4.837 
 H                     7.201     9.423    -5.622 
 H                     8.417     10.484   -4.833 
 

 GradGradGradGradGradGradGradGradGradGradGradGradGradGradGradGradGradGrad
 Berny optimization.
 Initialization pass.
                           ----------------------------
                           !    Initial Parameters    !
                           ! (Angstroms and Degrees)  !
 --------------------------                            --------------------------
 ! Name  Definition              Value          Derivative Info.                !
 --------------------------------------------------------------------------------
 ! R1    R(1,2)                  1.4107         estimate D2E/DX2                !
 ! R2    R(1,3)                  1.3724         estimate D2E/DX2                !
 ! R3    R(2,40)                 1.1005         estimate D2E/DX2                !
 ! R4    R(2,41)                 1.0993         estimate D2E/DX2                !
 ! R5    R(2,42)                 1.1001         estimate D2E/DX2                !
 ! R6    R(3,4)                  1.4035         estimate D2E/DX2                !
 ! R7    R(3,24)                 1.3862         estimate D2E/DX2                !
 ! R8    R(4,5)                  1.3532         estimate D2E/DX2                !
 ! R9    R(4,39)                 1.0843         estimate D2E/DX2                !
 ! R10   R(5,8)                  1.3901         estimate D2E/DX2                !
 ! R11   R(5,9)                  1.4041         estimate D2E/DX2                !
 ! R12   R(6,12)                 1.4158         estimate D2E/DX2                !
 ! R13   R(6,13)                 1.361          estimate D2E/DX2                !
 ! R14   R(6,38)                 1.0            estimate D2E/DX2                !
 ! R15   R(7,8)                  1.447          estimate D2E/DX2                !
 ! R16   R(7,35)                 1.1002         estimate D2E/DX2                !
 ! R17   R(7,36)                 1.0994         estimate D2E/DX2                !
 ! R18   R(7,37)                 1.0991         estimate D2E/DX2                !
 ! R19   R(9,12)                 1.4343         estimate D2E/DX2                !
 ! R20   R(9,23)                 1.4266         estimate D2E/DX2                !
 ! R21   R(10,19)                1.3413         estimate D2E/DX2                !
 ! R22   R(10,34)                0.9504         estimate D2E/DX2                !
 ! R23   R(11,13)                1.3555         estimate D2E/DX2                !
 ! R24   R(11,23)                1.4094         estimate D2E/DX2                !
 ! R25   R(12,14)                1.2481         estimate D2E/DX2                !
 ! R26   R(13,15)                1.4721         estimate D2E/DX2                !
 ! R27   R(15,16)                1.4107         estimate D2E/DX2                !
 ! R28   R(15,22)                1.4379         estimate D2E/DX2                !
 ! R29   R(16,17)                1.3894         estimate D2E/DX2                !
 ! R30   R(16,33)                1.0839         estimate D2E/DX2                !
 ! R31   R(17,18)                1.4953         estimate D2E/DX2                !
 ! R32   R(17,19)                1.4206         estimate D2E/DX2                !
 ! R33   R(18,30)                1.0994         estimate D2E/DX2                !
 ! R34   R(18,31)                1.0997         estimate D2E/DX2                !
 ! R35   R(18,32)                1.1002         estimate D2E/DX2                !
 ! R36   R(19,20)                1.3885         estimate D2E/DX2                !
 ! R37   R(20,21)                1.4992         estimate D2E/DX2                !
 ! R38   R(20,22)                1.3776         estimate D2E/DX2                !
 ! R39   R(21,27)                1.1002         estimate D2E/DX2                !
 ! R40   R(21,28)                1.1005         estimate D2E/DX2                !
 ! R41   R(21,29)                1.1002         estimate D2E/DX2                !
 ! R42   R(22,26)                1.0837         estimate D2E/DX2                !
 ! R43   R(23,24)                1.3845         estimate D2E/DX2                !
 ! R44   R(24,25)                1.0837         estimate D2E/DX2                !
 ! A1    A(2,1,3)              121.9246         estimate D2E/DX2                !
 ! A2    A(1,2,40)             109.4778         estimate D2E/DX2                !
 ! A3    A(1,2,41)             109.4752         estimate D2E/DX2                !
 ! A4    A(1,2,42)             109.4772         estimate D2E/DX2                !
 ! A5    A(40,2,41)            109.4532         estimate D2E/DX2                !
 ! A6    A(40,2,42)            109.4277         estimate D2E/DX2                !
 ! A7    A(41,2,42)            109.5162         estimate D2E/DX2                !
 ! A8    A(1,3,4)              119.5072         estimate D2E/DX2                !
 ! A9    A(1,3,24)             121.2942         estimate D2E/DX2                !
 ! A10   A(4,3,24)             119.1816         estimate D2E/DX2                !
 ! A11   A(3,4,5)              122.2176         estimate D2E/DX2                !
 ! A12   A(3,4,39)             118.878          estimate D2E/DX2                !
 ! A13   A(5,4,39)             118.9044         estimate D2E/DX2                !
 ! A14   A(4,5,8)              122.5757         estimate D2E/DX2                !
 ! A15   A(4,5,9)              121.4866         estimate D2E/DX2                !
 ! A16   A(8,5,9)              115.9261         estimate D2E/DX2                !
 ! A17   A(12,6,13)            119.4105         estimate D2E/DX2                !
 ! A18   A(12,6,38)            120.3362         estimate D2E/DX2                !
 ! A19   A(13,6,38)            120.2533         estimate D2E/DX2                !
 ! A20   A(8,7,35)             109.4524         estimate D2E/DX2                !
 ! A21   A(8,7,36)             109.464          estimate D2E/DX2                !
 ! A22   A(8,7,37)             109.4649         estimate D2E/DX2                !
 ! A23   A(35,7,36)            109.4352         estimate D2E/DX2                !
 ! A24   A(35,7,37)            109.5098         estimate D2E/DX2                !
 ! A25   A(36,7,37)            109.5011         estimate D2E/DX2                !
 ! A26   A(5,8,7)              118.1494         estimate D2E/DX2                !
 ! A27   A(5,9,12)             124.0736         estimate D2E/DX2                !
 ! A28   A(5,9,23)             115.0275         estimate D2E/DX2                !
 ! A29   A(12,9,23)            120.899          estimate D2E/DX2                !
 ! A30   A(19,10,34)           109.4425         estimate D2E/DX2                !
 ! A31   A(13,11,23)           120.8938         estimate D2E/DX2                !
 ! A32   A(6,12,9)             118.0324         estimate D2E/DX2                !
 ! A33   A(6,12,14)            116.9208         estimate D2E/DX2                !
 ! A34   A(9,12,14)            125.0214         estimate D2E/DX2                !
 ! A35   A(6,13,11)            123.5541         estimate D2E/DX2                !
 ! A36   A(6,13,15)            117.9244         estimate D2E/DX2                !
 ! A37   A(11,13,15)           118.5177         estimate D2E/DX2                !
 ! A38   A(13,15,16)           124.3698         estimate D2E/DX2                !
 ! A39   A(13,15,22)           117.9552         estimate D2E/DX2                !
 ! A40   A(16,15,22)           117.5995         estimate D2E/DX2                !
 ! A41   A(15,16,17)           120.3337         estimate D2E/DX2                !
 ! A42   A(15,16,33)           119.8475         estimate D2E/DX2                !
 ! A43   A(17,16,33)           119.8188         estimate D2E/DX2                !
 ! A44   A(16,17,18)           116.411          estimate D2E/DX2                !
 ! A45   A(16,17,19)           120.5162         estimate D2E/DX2                !
 ! A46   A(18,17,19)           123.0608         estimate D2E/DX2                !
 ! A47   A(17,18,30)           109.4676         estimate D2E/DX2                !
 ! A48   A(17,18,31)           109.4395         estimate D2E/DX2                !
 ! A49   A(17,18,32)           109.4216         estimate D2E/DX2                !
 ! A50   A(30,18,31)           109.5273         estimate D2E/DX2                !
 ! A51   A(30,18,32)           109.5325         estimate D2E/DX2                !
 ! A52   A(31,18,32)           109.4387         estimate D2E/DX2                !
 ! A53   A(10,19,17)           119.4916         estimate D2E/DX2                !
 ! A54   A(10,19,20)           120.4898         estimate D2E/DX2                !
 ! A55   A(17,19,20)           119.9317         estimate D2E/DX2                !
 ! A56   A(19,20,21)           119.1957         estimate D2E/DX2                !
 ! A57   A(19,20,22)           119.7092         estimate D2E/DX2                !
 ! A58   A(21,20,22)           121.0878         estimate D2E/DX2                !
 ! A59   A(20,21,27)           109.4696         estimate D2E/DX2                !
 ! A60   A(20,21,28)           109.4806         estimate D2E/DX2                !
 ! A61   A(20,21,29)           109.501          estimate D2E/DX2                !
 ! A62   A(27,21,28)           109.4595         estimate D2E/DX2                !
 ! A63   A(27,21,29)           109.4435         estimate D2E/DX2                !
 ! A64   A(28,21,29)           109.4731         estimate D2E/DX2                !
 ! A65   A(15,22,20)           121.8081         estimate D2E/DX2                !
 ! A66   A(15,22,26)           119.1245         estimate D2E/DX2                !
 ! A67   A(20,22,26)           119.0673         estimate D2E/DX2                !
 ! A68   A(9,23,11)            117.1866         estimate D2E/DX2                !
 ! A69   A(9,23,24)            124.1994         estimate D2E/DX2                !
 ! A70   A(11,23,24)           118.5924         estimate D2E/DX2                !
 ! A71   A(3,24,23)            117.8786         estimate D2E/DX2                !
 ! A72   A(3,24,25)            121.0563         estimate D2E/DX2                !
 ! A73   A(23,24,25)           121.0651         estimate D2E/DX2                !
 ! D1    D(3,1,2,40)           -60.0272         estimate D2E/DX2                !
 ! D2    D(3,1,2,41)            59.9572         estimate D2E/DX2                !
 ! D3    D(3,1,2,42)          -179.9815         estimate D2E/DX2                !
 ! D4    D(2,1,3,4)            173.7327         estimate D2E/DX2                !
 ! D5    D(2,1,3,24)            -4.7572         estimate D2E/DX2                !
 ! D6    D(1,3,4,5)           -179.097          estimate D2E/DX2                !
 ! D7    D(1,3,4,39)             0.9611         estimate D2E/DX2                !
 ! D8    D(24,3,4,5)            -0.575          estimate D2E/DX2                !
 ! D9    D(24,3,4,39)          179.4831         estimate D2E/DX2                !
 ! D10   D(1,3,24,23)          178.249          estimate D2E/DX2                !
 ! D11   D(1,3,24,25)           -1.7295         estimate D2E/DX2                !
 ! D12   D(4,3,24,23)           -0.2457         estimate D2E/DX2                !
 ! D13   D(4,3,24,25)          179.7758         estimate D2E/DX2                !
 ! D14   D(3,4,5,8)           -177.602          estimate D2E/DX2                !
 ! D15   D(3,4,5,9)              1.1081         estimate D2E/DX2                !
 ! D16   D(39,4,5,8)             2.3399         estimate D2E/DX2                !
 ! D17   D(39,4,5,9)          -178.95           estimate D2E/DX2                !
 ! D18   D(4,5,8,7)              1.3056         estimate D2E/DX2                !
 ! D19   D(9,5,8,7)           -177.4714         estimate D2E/DX2                !
 ! D20   D(4,5,9,12)           179.2425         estimate D2E/DX2                !
 ! D21   D(4,5,9,23)            -0.7585         estimate D2E/DX2                !
 ! D22   D(8,5,9,12)            -1.9661         estimate D2E/DX2                !
 ! D23   D(8,5,9,23)           178.0329         estimate D2E/DX2                !
 ! D24   D(13,6,12,9)            0.2824         estimate D2E/DX2                !
 ! D25   D(13,6,12,14)        -177.9791         estimate D2E/DX2                !
 ! D26   D(38,6,12,9)         -179.703          estimate D2E/DX2                !
 ! D27   D(38,6,12,14)           2.0354         estimate D2E/DX2                !
 ! D28   D(12,6,13,11)          -0.722          estimate D2E/DX2                !
 ! D29   D(12,6,13,15)         179.9945         estimate D2E/DX2                !
 ! D30   D(38,6,13,11)         179.2635         estimate D2E/DX2                !
 ! D31   D(38,6,13,15)          -0.0201         estimate D2E/DX2                !
 ! D32   D(35,7,8,5)           -59.9677         estimate D2E/DX2                !
 ! D33   D(36,7,8,5)            59.9723         estimate D2E/DX2                !
 ! D34   D(37,7,8,5)          -179.9995         estimate D2E/DX2                !
 ! D35   D(5,9,12,6)          -179.0127         estimate D2E/DX2                !
 ! D36   D(5,9,12,14)           -0.9055         estimate D2E/DX2                !
 ! D37   D(23,9,12,6)            0.9884         estimate D2E/DX2                !
 ! D38   D(23,9,12,14)         179.0956         estimate D2E/DX2                !
 ! D39   D(5,9,23,11)          178.204          estimate D2E/DX2                !
 ! D40   D(5,9,23,24)           -0.0748         estimate D2E/DX2                !
 ! D41   D(12,9,23,11)          -1.797          estimate D2E/DX2                !
 ! D42   D(12,9,23,24)         179.9242         estimate D2E/DX2                !
 ! D43   D(34,10,19,17)          3.3738         estimate D2E/DX2                !
 ! D44   D(34,10,19,20)        179.9807         estimate D2E/DX2                !
 ! D45   D(23,11,13,6)          -0.1479         estimate D2E/DX2                !
 ! D46   D(23,11,13,15)        179.1317         estimate D2E/DX2                !
 ! D47   D(13,11,23,9)           1.3899         estimate D2E/DX2                !
 ! D48   D(13,11,23,24)        179.7686         estimate D2E/DX2                !
 ! D49   D(6,13,15,16)         149.0938         estimate D2E/DX2                !
 ! D50   D(6,13,15,22)         -27.6642         estimate D2E/DX2                !
 ! D51   D(11,13,15,16)        -30.2267         estimate D2E/DX2                !
 ! D52   D(11,13,15,22)        153.0153         estimate D2E/DX2                !
 ! D53   D(13,15,16,17)       -173.1621         estimate D2E/DX2                !
 ! D54   D(13,15,16,33)          6.8056         estimate D2E/DX2                !
 ! D55   D(22,15,16,17)          3.6065         estimate D2E/DX2                !
 ! D56   D(22,15,16,33)       -176.4258         estimate D2E/DX2                !
 ! D57   D(13,15,22,20)        174.7577         estimate D2E/DX2                !
 ! D58   D(13,15,22,26)         -5.2704         estimate D2E/DX2                !
 ! D59   D(16,15,22,20)         -2.223          estimate D2E/DX2                !
 ! D60   D(16,15,22,26)        177.7489         estimate D2E/DX2                !
 ! D61   D(15,16,17,18)        176.4949         estimate D2E/DX2                !
 ! D62   D(15,16,17,19)         -2.2886         estimate D2E/DX2                !
 ! D63   D(33,16,17,18)         -3.4727         estimate D2E/DX2                !
 ! D64   D(33,16,17,19)        177.7437         estimate D2E/DX2                !
 ! D65   D(16,17,18,30)        121.2846         estimate D2E/DX2                !
 ! D66   D(16,17,18,31)       -118.6683         estimate D2E/DX2                !
 ! D67   D(16,17,18,32)          1.2422         estimate D2E/DX2                !
 ! D68   D(19,17,18,30)        -59.9658         estimate D2E/DX2                !
 ! D69   D(19,17,18,31)         60.0813         estimate D2E/DX2                !
 ! D70   D(19,17,18,32)        179.9918         estimate D2E/DX2                !
 ! D71   D(16,17,19,10)        176.0401         estimate D2E/DX2                !
 ! D72   D(16,17,19,20)         -0.5861         estimate D2E/DX2                !
 ! D73   D(18,17,19,10)         -2.6599         estimate D2E/DX2                !
 ! D74   D(18,17,19,20)       -179.2861         estimate D2E/DX2                !
 ! D75   D(10,19,20,21)          4.4292         estimate D2E/DX2                !
 ! D76   D(10,19,20,22)       -174.5994         estimate D2E/DX2                !
 ! D77   D(17,19,20,21)       -178.9788         estimate D2E/DX2                !
 ! D78   D(17,19,20,22)          1.9926         estimate D2E/DX2                !
 ! D79   D(19,20,21,27)        -60.0044         estimate D2E/DX2                !
 ! D80   D(19,20,21,28)         59.986          estimate D2E/DX2                !
 ! D81   D(19,20,21,29)       -179.9877         estimate D2E/DX2                !
 ! D82   D(22,20,21,27)        119.0105         estimate D2E/DX2                !
 ! D83   D(22,20,21,28)       -120.9992         estimate D2E/DX2                !
 ! D84   D(22,20,21,29)         -0.9728         estimate D2E/DX2                !
 ! D85   D(19,20,22,15)         -0.567          estimate D2E/DX2                !
 ! D86   D(19,20,22,26)        179.461          estimate D2E/DX2                !
 ! D87   D(21,20,22,15)       -179.5769         estimate D2E/DX2                !
 ! D88   D(21,20,22,26)          0.4512         estimate D2E/DX2                !
 ! D89   D(9,23,24,3)            0.5642         estimate D2E/DX2                !
 ! D90   D(9,23,24,25)        -179.4573         estimate D2E/DX2                !
 ! D91   D(11,23,24,3)        -177.6921         estimate D2E/DX2                !
 ! D92   D(11,23,24,25)          2.2864         estimate D2E/DX2                !
 --------------------------------------------------------------------------------
 Trust Radius=3.00D-01 FncErr=1.00D-07 GrdErr=1.00D-07
 Number of steps in this run= 219 maximum allowed number of steps= 252.
 GradGradGradGradGradGradGradGradGradGradGradGradGradGradGradGradGradGrad

                          Input orientation:                          
 ---------------------------------------------------------------------
 Center     Atomic     Atomic              Coordinates (Angstroms)
 Number     Number      Type              X           Y           Z
 ---------------------------------------------------------------------
    1          8             0        7.672000   11.153000   -6.631000
    2          6             0        7.483000   10.465000   -5.414000
    3          6             0        6.665000   11.285000   -7.554000
    4          6             0        6.866000   12.090000   -8.686000
    5          6             0        5.905000   12.273000   -9.621000
    6          7             0        2.340000   11.210000  -10.180000
    7          6             0        7.419000   13.615000  -10.974000
    8          8             0        6.112000   13.029000  -10.769000
    9          6             0        4.638000   11.681000   -9.496000
   10          8             0       -2.818000    7.958000   -8.648000
   11          7             0        3.193000   10.289000   -8.142000
   12          6             0        3.575000   11.850000  -10.444000
   13          6             0        2.200000   10.469000   -9.047000
   14          8             0        3.640000   12.549000  -11.476000
   15          6             0        0.902000    9.818000   -8.805000
   16          6             0        0.739000    8.599000   -8.114000
   17          6             0       -0.507000    7.987000   -8.055000
   18          6             0       -0.564000    6.659000   -7.370000
   19          6             0       -1.642000    8.603000   -8.647000
   20          6             0       -1.512000    9.832000   -9.280000
   21          6             0       -2.725000   10.478000   -9.879000
   22          6             0       -0.273000   10.428000   -9.366000
   23          6             0        4.461000   10.874000   -8.333000
   24          6             0        5.439000   10.663000   -7.376000
   25          1             0        5.252000   10.032000   -6.515000
   26          1             0       -0.182000   11.383000   -9.870000
   27          1             0       -3.150000    9.817000  -10.649000
   28          1             0       -3.474000   10.653000   -9.092000
   29          1             0       -2.442000   11.438000  -10.336000
   30          1             0       -1.269000    6.711000   -6.528000
   31          1             0       -0.900000    5.893000   -8.084000
   32          1             0        0.437000    6.397000   -6.996000
   33          1             0        1.590000    8.137000   -7.627000
   34          1             0       -2.730000    7.139000   -8.174000
   35          1             0        7.651000   14.294000  -10.140000
   36          1             0        8.175000   12.818000  -11.018000
   37          1             0        7.424000   14.178000  -11.918000
   38          1             0        1.577000   11.301000  -10.820000
   39          1             0        7.824000   12.581000   -8.816000
   40          1             0        6.683000   10.953000   -4.837000
   41          1             0        7.201000    9.423000   -5.622000
   42          1             0        8.417000   10.484000   -4.833000
 ---------------------------------------------------------------------
                    Distance matrix (angstroms):
                    1          2          3          4          5
     1  O    0.000000
     2  C    1.410728   0.000000
     3  C    1.372371   2.433336   0.000000
     4  C    2.398047   3.705037   1.403513   0.000000
     5  C    3.649218   4.843325   2.413759   1.353231   0.000000
     6  N    6.405379   7.051257   5.060348   4.846763   3.761871
     7  C    4.998710   6.390633   4.206402   2.804706   2.433879
     8  O    4.803751   6.093420   3.699131   2.406060   1.390068
     9  C    4.206206   5.122051   2.834944   2.405694   1.404058
    10  O   11.149727  11.083971  10.109058  10.528757   9.780423
    11  N    4.805316   5.086950   3.659582   4.126799   3.671327
    12  C    5.640052   6.518557   4.268422   3.738829   2.507022
    13  C    6.020606   6.411614   4.778193   4.952728   4.160639
    14  O    6.455995   7.473925   5.111791   4.289739   2.940651
    15  C    7.234736   7.431490   6.076945   6.383216   5.632308
    16  C    7.535827   7.500233   6.530365   7.074913   6.515894
    17  C    8.885233   8.772426   7.909829   8.461318   7.869936
    18  C    9.411368   9.114043   8.584415   9.296909   8.856182
    19  C    9.864956   9.858243   8.797387   9.194931   8.448360
    20  C    9.649254   9.811048   8.482548   8.697257   7.815795
    21  C   10.913420  11.141798   9.707161   9.798422   8.818474
    22  C    8.433794   8.704896   7.221748   7.361383   6.452653
    23  C    3.644882   4.221413   2.373474   2.717957   2.387736
    24  C    2.404457   2.840173   1.386234   2.405984   2.801657
    25  H    2.669550   2.525282   2.155481   3.399059   3.885322
    26  H    8.498784   8.913523   7.228753   7.181644   6.156758
    27  H   11.620882  11.869533  10.395589  10.456584   9.438313
    28  H   11.425403  11.559363  10.274443  10.447268   9.532570
    29  H   10.775029  11.121081   9.523675   9.475572   8.419077
    30  H    9.984160   9.588066   9.215341   9.988435   9.590035
    31  H   10.161594   9.914977   9.305041   9.953691   9.453824
    32  H    8.665909   8.288393   7.936743   8.752051   8.444941
    33  H    6.861414   6.711513   5.972509   6.677115   6.300933
    34  H   11.255872  11.089871  10.287844  10.810077  10.149630
    35  H    4.709501   6.084779   4.088236   2.754625   2.720720
    36  H    4.719216   6.117213   4.077927   2.771586   2.720576
    37  H    6.096269   7.489450   5.290560   3.888050   3.348521
    38  H    7.397206   8.050128   6.046053   5.757603   4.594994
    39  H    2.614673   4.020863   2.148381   1.084318   2.103675
    40  H    2.058290   1.100488   2.737268   4.017594   5.023379
    41  H    2.057382   1.099342   2.736232   4.075931   5.078791
    42  H    2.058006   1.100126   3.333909   4.453139   5.695227
                    6          7          8          9         10
     6  N    0.000000
     7  C    5.675447   0.000000
     8  O    4.228908   1.446952   0.000000
     9  C    2.443461   3.695782   2.368609   0.000000
    10  O    6.287089  11.925104  10.486114   8.376859   0.000000
    11  N    2.393594   6.077958   4.788454   2.420538   6.466971
    12  C    1.415811   4.262917   2.816387   1.434306   7.696995
    13  C    1.361018   6.391291   4.982231   2.759418   5.625357
    14  O    2.272122   3.958434   2.615537   2.381140   8.413122
    15  C    2.428195   7.848125   6.427435   4.231542   4.162049
    16  C    3.694439   8.829624   7.452721   5.158570   3.653531
    17  C    4.796745  10.149701   8.752070   6.495625   2.386045
    18  C    6.086125  11.184947   9.833569   7.536655   2.898483
    19  C    5.000286  10.613048   9.176975   7.045089   1.341269
    20  C    4.188889   9.845988   8.400197   6.425571   2.370008
    21  C    5.126466  10.674293   9.240794   7.470453   2.806138
    22  C    2.846382   8.479947   7.035754   5.069993   3.618487
    23  C    2.832481   4.820552   3.647454   1.426586   7.847683
    24  C    4.214905   5.057698   4.190863   2.484416   8.781404
    25  H    4.826971   6.116899   5.274289   3.461583   8.600934
    26  H    2.546863   7.998490   6.567492   4.843664   4.491370
    27  H    5.683354  11.235399   9.803876   8.090541   2.751383
    28  H    5.941093  11.444336  10.017440   8.186852   2.809003
    29  H    4.789973  10.118582   8.711469   7.133796   3.886016
    30  H    6.826638  11.954642  10.601055   8.270585   2.906684
    31  H    6.569726  11.712692  10.358565   8.134134   2.874203
    32  H    6.076531  10.801497   9.509184   7.198545   3.969994
    33  H    4.064928   8.671109   7.365617   5.034223   4.528239
    34  H    6.804556  12.360452  10.936503   8.755848   0.950358
    35  H    6.141610   1.100191   2.089112   4.039885  12.327649
    36  H    6.110248   1.099400   2.088658   4.014925  12.250818
    37  H    6.138137   1.099150   2.088479   4.456780  12.420945
    38  H    1.000025   6.285481   4.853330   3.356650   5.933739
    39  H    5.815014   2.426962   2.635499   3.379792  11.603987
    40  H    6.890236   6.729837   6.310661   5.139873  10.665962
    41  H    6.899134   6.801786   6.378148   5.164824  10.568030
    42  H    8.126956   6.964987   6.857561   6.120230  12.130957
                   11         12         13         14         15
    11  N    0.000000
    12  C    2.807463   0.000000
    13  C    1.355535   2.397790   0.000000
    14  O    4.052526   1.248139   3.507141   0.000000
    15  C    2.431068   3.736345   1.472131   4.699920   0.000000
    16  C    2.979765   4.903142   2.549884   5.943176   1.410677
    17  C    4.358529   6.106784   3.804239   7.050723   2.429062
    18  C    5.280903   7.316234   4.996811   8.320153   3.766651
    19  C    5.145371   6.402289   4.289862   7.174516   2.823672
    20  C    4.862193   5.595068   3.773460   6.224758   2.460329
    21  C    6.170544   6.472373   4.994790   6.881328   3.839818
    22  C    3.678404   4.241612   2.493827   4.925679   1.437862
    23  C    1.409443   2.488753   2.405399   3.654876   3.742245
    24  C    2.402321   3.781017   3.649794   4.858333   4.831194
    25  H    2.636790   4.642682   3.989574   5.791835   4.920609
    26  H    3.946320   3.829179   2.680793   4.306562   2.181400
    27  H    6.836774   7.028566   5.622634   7.365586   4.451858
    28  H    6.744174   7.276614   5.677161   7.738686   4.464187
    29  H    6.155247   6.032056   4.914127   6.286863   4.018793
    30  H    5.942771   8.075191   5.701043   9.091932   4.421699
    31  H    6.006732   7.815438   5.610450   8.741830   4.378661
    32  H    4.904744   7.174326   4.888349   8.256919   3.897685
    33  H    2.732387   5.065776   2.797628   6.203470   2.164899
    34  H    6.708610   8.191425   6.012980   8.986000   4.557041
    35  H    6.317103   4.762282   6.748235   4.573625   8.207667
    36  H    6.283911   4.735663   6.715897   4.565999   8.172753
    37  H    6.876326   4.733610   7.020648   4.143388   8.440193
    38  H    3.287443   2.105892   2.055209   2.498761   2.591359
    39  H    5.210921   4.608551   6.011928   4.958072   7.453078
    40  H    4.852218   6.473231   6.168926   7.475519   7.103042
    41  H    4.812943   6.503068   6.150995   7.531395   7.068586
    42  H    6.186896   7.536195   7.510600   8.438803   8.526169
                   16         17         18         19         20
    16  C    0.000000
    17  C    1.389439   0.000000
    18  C    2.452538   1.495345   0.000000
    19  C    2.439932   1.420614   2.563581   0.000000
    20  C    2.819015   2.432010   3.822922   1.388535   0.000000
    21  C    4.318004   3.801524   5.054677   2.491252   1.499162
    22  C    2.436573   2.780640   4.274817   2.392017   1.377582
    23  C    4.367708   5.752658   6.629044   6.519405   6.136718
    24  C    5.186014   6.555679   7.215820   7.483288   7.254804
    25  H    4.997745   6.302357   6.777463   7.356270   7.310056
    26  H    3.417957   3.864281   5.358367   3.369826   2.126641
    27  H    4.799382   4.130761   5.235666   2.784935   2.134814
    28  H    4.787982   4.121409   5.233108   2.785094   2.135141
    29  H    4.807907   4.566901   5.929830   3.395577   2.135245
    30  H    3.179938   2.130856   1.099406   2.865127   4.168116
    31  H    3.163804   2.130757   1.099749   2.865595   4.161812
    32  H    2.487957   2.130896   1.100237   3.451736   4.562289
    33  H    1.083888   2.145482   2.624928   3.421020   3.902286
    34  H    3.764195   2.382225   2.359740   1.884348   3.155790
    35  H    9.182235  10.520382  11.552158  10.998926  10.227884
    36  H    9.029245  10.367982  11.296517  10.943553  10.284688
    37  H    9.501836  10.777384  11.875513  11.134290  10.280995
    38  H    3.914778   4.792794   6.167215   4.728963   3.751197
    39  H    8.157595   9.544083  10.369163  10.269284   9.743367
    40  H    7.184092   8.417172   8.796223   9.452207   9.389085
    41  H    6.974703   8.209437   8.425582   9.381987   9.458574
    42  H    8.559782   9.810916  10.085899  10.921000  10.898897
                   21         22         23         24         25
    21  C    0.000000
    22  C    2.505588   0.000000
    23  C    7.361082   4.865877   0.000000
    24  C    8.541085   6.053286   1.384505   0.000000
    25  H    8.668791   6.229819   2.154012   1.083721   0.000000
    26  H    2.699251   1.083661   4.917204   6.191452   6.527602
    27  H    1.100203   3.208822   8.025486   9.230339   9.366418
    28  H    1.100452   3.220575   7.974280   9.076691   9.119739
    29  H    1.100245   2.581775   7.209821   8.454134   8.704856
    30  H    5.247802   4.781459   7.309001   7.831646   7.317968
    31  H    5.251178   4.754248   7.322068   7.964740   7.578930
    32  H    5.913078   4.729689   6.166334   6.585071   6.052174
    33  H    5.401019   3.426889   4.028926   4.610692   4.270575
    34  H    3.749129   4.274954   8.104689   8.932410   8.650668
    35  H   11.058542   8.850695   5.013756   5.071174   6.087731
    36  H   11.206379   8.933639   4.978168   5.039235   6.048366
    37  H   10.993167   8.934149   5.705086   6.076612   7.148378
    38  H    4.479957   2.509730   3.832095   5.213753   5.800777
    39  H   10.808977   8.396387   3.802224   3.382388   4.290360
    40  H   10.684468   8.317055   4.143132   2.842210   2.389913
    41  H   10.851753   8.419515   4.118558   2.778266   2.228661
    42  H   12.231366   9.801394   5.296417   3.920124   3.612569
                   26         27         28         29         30
    26  H    0.000000
    27  H    3.445028   0.000000
    28  H    3.460556   1.796697   0.000000
    29  H    2.308199   1.796350   1.796882   0.000000
    30  H    5.846205   5.492544   5.193793   6.182340   0.000000
    31  H    5.817682   5.199952   5.504465   6.180315   1.796224
    32  H    5.788198   6.156897   6.148388   6.697456   1.796679
    33  H    4.325222   5.867068   5.841282   5.873015   3.378633
    34  H    5.232615   3.670655   3.707352   4.820642   2.242102
    35  H    8.360784  11.703171  11.752481  10.491130  12.252136
    36  H    8.556669  11.721680  12.003995  10.728011  12.109694
    37  H    8.358084  11.508178  11.797386  10.360902  12.663982
    38  H    2.000826   4.957421   5.377591   4.050356   6.898484
    39  H    8.163465  11.464217  11.464648  10.440671  11.062301
    40  H    8.523158  11.478577  11.016337  10.664889   9.169970
    41  H    8.740469  11.513868  11.292007  10.921056   8.939613
    42  H   10.006117  12.964036  12.631846  12.211102  10.532196
                   31         32         33         34         35
    31  H    0.000000
    32  H    1.795920   0.000000
    33  H    3.382970   2.180635   0.000000
    34  H    2.215743   3.459500   4.467394   0.000000
    35  H   12.162382  11.148504   8.997752  12.760264   0.000000
    36  H   11.786416  10.829698   8.762013  12.619762   1.795560
    37  H   12.354342  11.558037   9.430902  12.910026   1.796182
    38  H    6.547342   6.322325   4.495143   6.547809   6.805433
    39  H   11.016957   9.804184   7.747620  11.891781   2.171929
    40  H    9.677215   8.026888   6.453883  10.690497   6.342012
    41  H    9.173252   7.536329   6.095666  10.504957   6.658939
    42  H   10.883601   9.222935   7.740980  12.108134   6.577774
                   36         37         38         39         40
    36  H    0.000000
    37  H    1.795439   0.000000
    38  H    6.773042   6.608339   0.000000
    39  H    2.242359   3.511811   6.684267   0.000000
    40  H    6.626390   7.816026   7.873286   4.448000   0.000000
    41  H    6.449149   7.892995   7.885142   4.534615   1.795954
    42  H    6.615160   8.051640   9.126733   4.540192   1.796311
                   41         42
    41  H    0.000000
    42  H    1.796357   0.000000
 Stoichiometry    C18H18N2O4
 Framework group  C1[X(C18H18N2O4)]
 Deg. of freedom   120
 Full point group                 C1
 Largest Abelian subgroup         C1      NOp   1
 Largest concise Abelian subgroup C1      NOp   1
                         Standard orientation:                         
 ---------------------------------------------------------------------
 Center     Atomic     Atomic              Coordinates (Angstroms)
 Number     Number      Type              X           Y           Z
 ---------------------------------------------------------------------
    1          8             0       -4.663671    2.480083    0.313009
    2          6             0       -4.239282    3.797122    0.587700
    3          6             0       -3.772773    1.447194    0.161871
    4          6             0       -4.252320    0.135660    0.021289
    5          6             0       -3.423024   -0.925218   -0.113033
    6          7             0        0.284699   -1.559243   -0.162749
    7          6             0       -5.319809   -2.426281   -0.382820
    8          8             0       -3.889818   -2.220950   -0.301370
    9          6             0       -2.027468   -0.771891   -0.095972
   10          8             0        6.273410    0.353766   -0.105855
   11          7             0       -0.176132    0.772910    0.116514
   12          6             0       -1.098213   -1.857658   -0.217741
   13          6             0        0.683809   -0.269253    0.007561
   14          8             0       -1.412664   -3.059716   -0.336179
   15          6             0        2.129417    0.003909    0.060198
   16          6             0        2.730259    1.201204   -0.381937
   17          6             0        4.114145    1.317395   -0.425552
   18          6             0        4.657186    2.593783   -0.984118
   19          6             0        4.941875    0.251959    0.019255
   20          6             0        4.367609   -0.911656    0.513470
   21          6             0        5.256617   -2.016456    0.999852
   22          6             0        2.996329   -1.042087    0.531156
   23          6             0       -1.569632    0.570833    0.054451
   24          6             0       -2.404417    1.668652    0.176036
   25          1             0       -2.001040    2.669184    0.279348
   26          1             0        2.559460   -1.958180    0.910949
   27          1             0        5.901458   -2.357714    0.176342
   28          1             0        5.882196   -1.647148    1.826447
   29          1             0        4.639404   -2.855749    1.353650
   30          1             0        5.287369    3.085310   -0.229158
   31          1             0        5.258160    2.375342   -1.878859
   32          1             0        3.823385    3.258032   -1.256277
   33          1             0        2.109446    2.034672   -0.689729
   34          1             0        6.493706    1.209129   -0.456576
   35          1             0       -5.792573   -2.085942    0.550499
   36          1             0       -5.724750   -1.852224   -1.228493
   37          1             0       -5.528477   -3.495156   -0.531461
   38          1             0        0.962742   -2.289289   -0.248432
   39          1             0       -5.323458   -0.032875    0.019348
   40          1             0       -3.681607    3.812629    1.536294
   41          1             0       -3.588660    4.149630   -0.225307
   42          1             0       -5.116632    4.455950    0.668207
 ---------------------------------------------------------------------
 Rotational constants (GHZ):      0.4473866      0.1113718      0.0912404
 Standard basis: 6-31G(d) (6D, 7F)
 There are   396 symmetry adapted basis functions of A   symmetry.
 Integral buffers will be    131072 words long.
 Raffenetti 1 integral format.
 Two-electron integral symmetry is turned on.
   396 basis functions,   744 primitive gaussians,   396 cartesian basis functions
    86 alpha electrons       86 beta electrons
       nuclear repulsion energy      1951.8488363922 Hartrees.
 NAtoms=   42 NActive=   42 NUniq=   42 SFac= 7.50D-01 NAtFMM=   80 NAOKFM=F Big=F
 One-electron integrals computed using PRISM.
 NBasis=   396 RedAO= T  NBF=   396
 NBsUse=   396 1.00D-06 NBFU=   396
 Harris functional with IExCor=  205 diagonalized for initial guess.
 ExpMin= 1.61D-01 ExpMax= 5.48D+03 ExpMxC= 8.25D+02 IAcc=1 IRadAn=         1 AccDes= 1.00D-06
 HarFok:  IExCor= 205 AccDes= 1.00D-06 IRadAn=         1 IDoV=1
 ScaDFX=  1.000000  1.000000  1.000000  1.000000
 Initial guess orbital symmetries:
       Occupied  (A) (A) (A) (A) (A) (A) (A) (A) (A) (A) (A) (A)
                 (A) (A) (A) (A) (A) (A) (A) (A) (A) (A) (A) (A)
                 (A) (A) (A) (A) (A) (A) (A) (A) (A) (A) (A) (A)
                 (A) (A) (A) (A) (A) (A) (A) (A) (A) (A) (A) (A)
                 (A) (A) (A) (A) (A) (A) (A) (A) (A) (A) (A) (A)
                 (A) (A) (A) (A) (A) (A) (A) (A) (A) (A) (A) (A)
                 (A) (A) (A) (A) (A) (A) (A) (A) (A) (A) (A) (A)
                 (A) (A)
       Virtual   (A) (A) (A) (A) (A) (A) (A) (A) (A) (A) (A) (A)
                 (A) (A) (A) (A) (A) (A) (A) (A) (A) (A) (A) (A)
                 (A) (A) (A) (A) (A) (A) (A) (A) (A) (A) (A) (A)
                 (A) (A) (A) (A) (A) (A) (A) (A) (A) (A) (A) (A)
                 (A) (A) (A) (A) (A) (A) (A) (A) (A) (A) (A) (A)
                 (A) (A) (A) (A) (A) (A) (A) (A) (A) (A) (A) (A)
                 (A) (A) (A) (A) (A) (A) (A) (A) (A) (A) (A) (A)
                 (A) (A) (A) (A) (A) (A) (A) (A) (A) (A) (A) (A)
                 (A) (A) (A) (A) (A) (A) (A) (A) (A) (A) (A) (A)
                 (A) (A) (A) (A) (A) (A) (A) (A) (A) (A) (A) (A)
                 (A) (A) (A) (A) (A) (A) (A) (A) (A) (A) (A) (A)
                 (A) (A) (A) (A) (A) (A) (A) (A) (A) (A) (A) (A)
                 (A) (A) (A) (A) (A) (A) (A) (A) (A) (A) (A) (A)
                 (A) (A) (A) (A) (A) (A) (A) (A) (A) (A) (A) (A)
                 (A) (A) (A) (A) (A) (A) (A) (A) (A) (A) (A) (A)
                 (A) (A) (A) (A) (A) (A) (A) (A) (A) (A) (A) (A)
                 (A) (A) (A) (A) (A) (A) (A) (A) (A) (A) (A) (A)
                 (A) (A) (A) (A) (A) (A) (A) (A) (A) (A) (A) (A)
                 (A) (A) (A) (A) (A) (A) (A) (A) (A) (A) (A) (A)
                 (A) (A) (A) (A) (A) (A) (A) (A) (A) (A) (A) (A)
                 (A) (A) (A) (A) (A) (A) (A) (A) (A) (A) (A) (A)
                 (A) (A) (A) (A) (A) (A) (A) (A) (A) (A) (A) (A)
                 (A) (A) (A) (A) (A) (A) (A) (A) (A) (A) (A) (A)
                 (A) (A) (A) (A) (A) (A) (A) (A) (A) (A) (A) (A)
                 (A) (A) (A) (A) (A) (A) (A) (A) (A) (A) (A) (A)
                 (A) (A) (A) (A) (A) (A) (A) (A) (A) (A)
 The electronic state of the initial guess is 1-A.
 Requested convergence on RMS density matrix=1.00D-08 within 128 cycles.
 Requested convergence on MAX density matrix=1.00D-06.
 Requested convergence on             energy=1.00D-06.
 No special actions if energy rises.
 Integral accuracy reduced to 1.0D-05 until final iterations.
 Initial convergence to 1.0D-05 achieved.  Increase integral accuracy.
 SCF Done:  E(RHF) =  -1100.43665699     A.U. after   16 cycles
             Convg  =    0.9645D-08             -V/T =  2.0025
             S**2   =   0.0000

 **********************************************************************

            Population analysis using the SCF density.

 **********************************************************************

 Orbital symmetries:
 BldTbl:  Degeneracy threshold= 1.00D-02
       Occupied  (A) (A) (A) (A) (A) (A) (A) (A) (A) (A) (A) (A)
                 (A) (A) (A) (A) (A) (A) (A) (A) (A) (A) (A) (A)
                 (A) (A) (A) (A) (A) (A) (A) (A) (A) (A) (A) (A)
                 (A) (A) (A) (A) (A) (A) (A) (A) (A) (A) (A) (A)
                 (A) (A) (A) (A) (A) (A) (A) (A) (A) (A) (A) (A)
                 (A) (A) (A) (A) (A) (A) (A) (A) (A) (A) (A) (A)
                 (A) (A) (A) (A) (A) (A) (A) (A) (A) (A) (A) (A)
                 (A) (A)
       Virtual   (A) (A) (A) (A) (A) (A) (A) (A) (A) (A) (A) (A)
                 (A) (A) (A) (A) (A) (A) (A) (A) (A) (A) (A) (A)
                 (A) (A) (A) (A) (A) (A) (A) (A) (A) (A) (A) (A)
                 (A) (A) (A) (A) (A) (A) (A) (A) (A) (A) (A) (A)
                 (A) (A) (A) (A) (A) (A) (A) (A) (A) (A) (A) (A)
                 (A) (A) (A) (A) (A) (A) (A) (A) (A) (A) (A) (A)
                 (A) (A) (A) (A) (A) (A) (A) (A) (A) (A) (A) (A)
                 (A) (A) (A) (A) (A) (A) (A) (A) (A) (A) (A) (A)
                 (A) (A) (A) (A) (A) (A) (A) (A) (A) (A) (A) (A)
                 (A) (A) (A) (A) (A) (A) (A) (A) (A) (A) (A) (A)
                 (A) (A) (A) (A) (A) (A) (A) (A) (A) (A) (A) (A)
                 (A) (A) (A) (A) (A) (A) (A) (A) (A) (A) (A) (A)
                 (A) (A) (A) (A) (A) (A) (A) (A) (A) (A) (A) (A)
                 (A) (A) (A) (A) (A) (A) (A) (A) (A) (A) (A) (A)
                 (A) (A) (A) (A) (A) (A) (A) (A) (A) (A) (A) (A)
                 (A) (A) (A) (A) (A) (A) (A) (A) (A) (A) (A) (A)
                 (A) (A) (A) (A) (A) (A) (A) (A) (A) (A) (A) (A)
                 (A) (A) (A) (A) (A) (A) (A) (A) (A) (A) (A) (A)
                 (A) (A) (A) (A) (A) (A) (A) (A) (A) (A) (A) (A)
                 (A) (A) (A) (A) (A) (A) (A) (A) (A) (A) (A) (A)
                 (A) (A) (A) (A) (A) (A) (A) (A) (A) (A) (A) (A)
                 (A) (A) (A) (A) (A) (A) (A) (A) (A) (A) (A) (A)
                 (A) (A) (A) (A) (A) (A) (A) (A) (A) (A) (A) (A)
                 (A) (A) (A) (A) (A) (A) (A) (A) (A) (A) (A) (A)
                 (A) (A) (A) (A) (A) (A) (A) (A) (A) (A) (A) (A)
                 (A) (A) (A) (A) (A) (A) (A) (A) (A) (A)
 The electronic state is 1-A.
 Alpha  occ. eigenvalues --  -20.61361 -20.59756 -20.58010 -20.50761 -15.62305
 Alpha  occ. eigenvalues --  -15.55042 -11.35684 -11.35200 -11.32397 -11.31790
 Alpha  occ. eigenvalues --  -11.31456 -11.29450 -11.29200 -11.28126 -11.25853
 Alpha  occ. eigenvalues --  -11.25741 -11.25369 -11.25224 -11.24936 -11.24827
 Alpha  occ. eigenvalues --  -11.23151 -11.22997 -11.21939 -11.21882  -1.43616
 Alpha  occ. eigenvalues --   -1.41262  -1.38440  -1.35956  -1.28784  -1.19417
 Alpha  occ. eigenvalues --   -1.16817  -1.13396  -1.08306  -1.06056  -1.03701
 Alpha  occ. eigenvalues --   -1.00861  -0.96389  -0.95723  -0.94029  -0.93894
 Alpha  occ. eigenvalues --   -0.90007  -0.87178  -0.82718  -0.80670  -0.79452
 Alpha  occ. eigenvalues --   -0.77631  -0.75727  -0.73448  -0.71241  -0.69044
 Alpha  occ. eigenvalues --   -0.68486  -0.67264  -0.65861  -0.65235  -0.63778
 Alpha  occ. eigenvalues --   -0.63420  -0.62969  -0.61584  -0.61173  -0.60263
 Alpha  occ. eigenvalues --   -0.59838  -0.59109  -0.58904  -0.57780  -0.57247
 Alpha  occ. eigenvalues --   -0.56945  -0.56459  -0.56263  -0.54122  -0.53887
 Alpha  occ. eigenvalues --   -0.53269  -0.52049  -0.50737  -0.49495  -0.49213
 Alpha  occ. eigenvalues --   -0.48828  -0.48479  -0.47083  -0.44754  -0.41631
 Alpha  occ. eigenvalues --   -0.40479  -0.38559  -0.34102  -0.32674  -0.31794
 Alpha  occ. eigenvalues --   -0.28538
 Alpha virt. eigenvalues --    0.07888   0.11285   0.13268   0.16521   0.19795
 Alpha virt. eigenvalues --    0.21498   0.22724   0.23982   0.25043   0.26085
 Alpha virt. eigenvalues --    0.26148   0.26719   0.27621   0.28797   0.29476
 Alpha virt. eigenvalues --    0.29552   0.30163   0.30400   0.31577   0.31673
 Alpha virt. eigenvalues --    0.31934   0.32754   0.32836   0.33408   0.35195
 Alpha virt. eigenvalues --    0.35542   0.38432   0.39283   0.40896   0.41928
 Alpha virt. eigenvalues --    0.42597   0.43177   0.43880   0.44653   0.46193
 Alpha virt. eigenvalues --    0.46722   0.48188   0.50555   0.51821   0.52264
 Alpha virt. eigenvalues --    0.53765   0.55070   0.57321   0.58873   0.61327
 Alpha virt. eigenvalues --    0.62284   0.63456   0.65352   0.67353   0.69389
 Alpha virt. eigenvalues --    0.70060   0.71615   0.72600   0.73154   0.73393
 Alpha virt. eigenvalues --    0.74271   0.74585   0.74998   0.75619   0.76311
 Alpha virt. eigenvalues --    0.77153   0.77467   0.77735   0.78537   0.78730
 Alpha virt. eigenvalues --    0.79231   0.79845   0.81104   0.81739   0.82737
 Alpha virt. eigenvalues --    0.83612   0.83999   0.84533   0.85240   0.87608
 Alpha virt. eigenvalues --    0.88545   0.89267   0.90184   0.90615   0.92151
 Alpha virt. eigenvalues --    0.92564   0.92880   0.95127   0.95303   0.95930
 Alpha virt. eigenvalues --    0.97192   0.98017   0.98589   0.98844   1.01336
 Alpha virt. eigenvalues --    1.02010   1.02467   1.03505   1.03959   1.05496
 Alpha virt. eigenvalues --    1.06358   1.07531   1.08396   1.08575   1.09424
 Alpha virt. eigenvalues --    1.10598   1.10717   1.11433   1.11506   1.11929
 Alpha virt. eigenvalues --    1.12865   1.13500   1.13988   1.14510   1.14637
 Alpha virt. eigenvalues --    1.15605   1.17453   1.17818   1.18317   1.18569
 Alpha virt. eigenvalues --    1.19638   1.20480   1.21096   1.21657   1.22544
 Alpha virt. eigenvalues --    1.24377   1.24890   1.25315   1.26136   1.27930
 Alpha virt. eigenvalues --    1.28239   1.30236   1.30446   1.31924   1.32578
 Alpha virt. eigenvalues --    1.33372   1.33909   1.36289   1.36843   1.37092
 Alpha virt. eigenvalues --    1.38172   1.39265   1.41486   1.42691   1.42832
 Alpha virt. eigenvalues --    1.45634   1.46882   1.48575   1.49499   1.51438
 Alpha virt. eigenvalues --    1.52636   1.53418   1.55509   1.56268   1.57788
 Alpha virt. eigenvalues --    1.59481   1.61439   1.62285   1.62288   1.63565
 Alpha virt. eigenvalues --    1.64085   1.64696   1.65084   1.66651   1.67640
 Alpha virt. eigenvalues --    1.68157   1.68972   1.71825   1.72464   1.73100
 Alpha virt. eigenvalues --    1.75293   1.76175   1.77698   1.78450   1.79288
 Alpha virt. eigenvalues --    1.81483   1.81962   1.83560   1.87098   1.88149
 Alpha virt. eigenvalues --    1.92034   1.98600   1.99911   2.00481   2.01343
 Alpha virt. eigenvalues --    2.02653   2.03480   2.03786   2.04354   2.07134
 Alpha virt. eigenvalues --    2.07830   2.09396   2.10934   2.12632   2.13524
 Alpha virt. eigenvalues --    2.14640   2.15490   2.15768   2.16587   2.18269
 Alpha virt. eigenvalues --    2.18852   2.19115   2.20096   2.20801   2.21833
 Alpha virt. eigenvalues --    2.23864   2.24068   2.25410   2.25662   2.28244
 Alpha virt. eigenvalues --    2.29322   2.29945   2.31317   2.31969   2.33486
 Alpha virt. eigenvalues --    2.36245   2.36794   2.37961   2.39606   2.41103
 Alpha virt. eigenvalues --    2.42796   2.43961   2.45215   2.46629   2.47579
 Alpha virt. eigenvalues --    2.48370   2.48551   2.50457   2.51050   2.53213
 Alpha virt. eigenvalues --    2.54072   2.55948   2.56740   2.57599   2.59376
 Alpha virt. eigenvalues --    2.60695   2.61414   2.61565   2.62782   2.63042
 Alpha virt. eigenvalues --    2.63364   2.64574   2.65470   2.67022   2.67622
 Alpha virt. eigenvalues --    2.68446   2.69687   2.69780   2.71070   2.72357
 Alpha virt. eigenvalues --    2.74899   2.76293   2.81206   2.83703   2.83777
 Alpha virt. eigenvalues --    2.84982   2.88615   2.89455   2.90397   2.92061
 Alpha virt. eigenvalues --    2.94485   2.96519   2.98829   3.01530   3.03073
 Alpha virt. eigenvalues --    3.03953   3.05098   3.05537   3.06819   3.07424
 Alpha virt. eigenvalues --    3.09072   3.12862   3.13796   3.16956   3.17857
 Alpha virt. eigenvalues --    3.18974   3.23902   3.26069   3.28678   3.34423
 Alpha virt. eigenvalues --    3.36189   3.38149   3.39889   3.42864   3.45140
 Alpha virt. eigenvalues --    3.52758   3.59560   3.63314   3.77091   3.85561
 Alpha virt. eigenvalues --    3.90747   4.41087   4.41359   4.47981   4.49569
 Alpha virt. eigenvalues --    4.51296   4.53782   4.55623   4.57088   4.58010
 Alpha virt. eigenvalues --    4.61274   4.65211   4.66136   4.68775   4.71352
 Alpha virt. eigenvalues --    4.77065   4.80212   4.82954   4.84442   4.89639
 Alpha virt. eigenvalues --    4.97194   5.02678   5.20472   5.22463   5.28438
          Condensed to atoms (all electrons):
              1          2          3          4          5          6
     1  O    8.417898   0.191896   0.256182  -0.036291   0.000644   0.000000
     2  C    0.191896   4.855253  -0.037359   0.001687  -0.000005   0.000000
     3  C    0.256182  -0.037359   4.340335   0.514005  -0.008049  -0.000011
     4  C   -0.036291   0.001687   0.514005   5.244501   0.521917  -0.000031
     5  C    0.000644  -0.000005  -0.008049   0.521917   4.355137   0.001832
     6  N    0.000000   0.000000  -0.000011  -0.000031   0.001832   7.469466
     7  C   -0.000004   0.000000  -0.000285  -0.009451  -0.039976   0.000002
     8  O   -0.000006   0.000000   0.003115  -0.058083   0.292964  -0.000080
     9  C    0.000379  -0.000011  -0.021518  -0.082202   0.478880  -0.117570
    10  O    0.000000   0.000000   0.000000   0.000000   0.000000   0.000000
    11  N   -0.000031  -0.000003   0.001216   0.000255   0.007117  -0.083431
    12  C    0.000000   0.000000  -0.001022   0.007278  -0.046120   0.263524
    13  C    0.000000   0.000000   0.000017  -0.000041   0.000972   0.261272
    14  O    0.000000   0.000000  -0.000019   0.000499   0.000640  -0.098851
    15  C    0.000000   0.000000   0.000000   0.000000   0.000025  -0.073867
    16  C    0.000000   0.000000   0.000000   0.000000  -0.000001   0.004261
    17  C    0.000000   0.000000   0.000000   0.000000   0.000000  -0.000073
    18  C    0.000000   0.000000   0.000000   0.000000   0.000000   0.000000
    19  C    0.000000   0.000000   0.000000   0.000000   0.000000   0.000000
    20  C    0.000000   0.000000   0.000000   0.000000   0.000000   0.000199
    21  C    0.000000   0.000000   0.000000   0.000000   0.000000   0.000000
    22  C    0.000000   0.000000   0.000000   0.000000   0.000000  -0.011169
    23  C    0.003933  -0.000718  -0.018223  -0.030814  -0.023963  -0.006219
    24  C   -0.048808  -0.008394   0.523233  -0.074366  -0.028432   0.000262
    25  H   -0.004701   0.001267  -0.031648   0.002586  -0.000138   0.000019
    26  H    0.000000   0.000000   0.000000   0.000000   0.000000   0.002601
    27  H    0.000000   0.000000   0.000000   0.000000   0.000000   0.000000
    28  H    0.000000   0.000000   0.000000   0.000000   0.000000   0.000000
    29  H    0.000000   0.000000   0.000000   0.000000   0.000000  -0.000004
    30  H    0.000000   0.000000   0.000000   0.000000   0.000000   0.000000
    31  H    0.000000   0.000000   0.000000   0.000000   0.000000   0.000000
    32  H    0.000000   0.000000   0.000000   0.000000   0.000000   0.000000
    33  H    0.000000   0.000000   0.000000   0.000000   0.000000   0.000128
    34  H    0.000000   0.000000   0.000000   0.000000   0.000000   0.000000
    35  H   -0.000001   0.000000  -0.000176   0.000610  -0.003825   0.000000
    36  H    0.000000   0.000000  -0.000216   0.001490  -0.003057   0.000000
    37  H    0.000000   0.000000   0.000013   0.000409   0.002155   0.000000
    38  H    0.000000   0.000000   0.000000   0.000000   0.000045   0.297070
    39  H    0.001346  -0.000095  -0.024904   0.376053  -0.032666   0.000001
    40  H   -0.039875   0.390521  -0.000378   0.000054  -0.000002   0.000000
    41  H   -0.039620   0.390623  -0.001235  -0.000092   0.000005   0.000000
    42  H   -0.028055   0.398723   0.001460   0.000003   0.000000   0.000000
              7          8          9         10         11         12
     1  O   -0.000004  -0.000006   0.000379   0.000000  -0.000031   0.000000
     2  C    0.000000   0.000000  -0.000011   0.000000  -0.000003   0.000000
     3  C   -0.000285   0.003115  -0.021518   0.000000   0.001216  -0.001022
     4  C   -0.009451  -0.058083  -0.082202   0.000000   0.000255   0.007278
     5  C   -0.039976   0.292964   0.478880   0.000000   0.007117  -0.046120
     6  N    0.000002  -0.000080  -0.117570   0.000000  -0.083431   0.263524
     7  C    4.864076   0.197225   0.003491   0.000000   0.000001  -0.000239
     8  O    0.197225   8.387147  -0.056633   0.000000  -0.000030   0.001852
     9  C    0.003491  -0.056633   5.511620   0.000000  -0.059438   0.302225
    10  O    0.000000   0.000000   0.000000   8.311823   0.000000   0.000000
    11  N    0.000001  -0.000030  -0.059438   0.000000   7.098091  -0.020593
    12  C   -0.000239   0.001852   0.302225   0.000000  -0.020593   4.069358
    13  C    0.000000   0.000004   0.001922  -0.000001   0.555945  -0.039883
    14  O    0.000320  -0.017030  -0.095366   0.000000   0.000091   0.629636
    15  C    0.000000   0.000000   0.000752  -0.000100  -0.080772   0.000196
    16  C    0.000000   0.000000   0.000034   0.003038   0.000848  -0.000008
    17  C    0.000000   0.000000   0.000000  -0.083057   0.000484   0.000001
    18  C    0.000000   0.000000   0.000000  -0.000699  -0.000010   0.000000
    19  C    0.000000   0.000000   0.000000   0.307266   0.000013   0.000000
    20  C    0.000000   0.000000  -0.000001  -0.057262  -0.000076  -0.000009
    21  C    0.000000   0.000000   0.000000  -0.002060   0.000000   0.000000
    22  C    0.000000   0.000000  -0.000112   0.002973   0.001454   0.000309
    23  C   -0.000005   0.001375   0.460276   0.000000   0.350721  -0.029619
    24  C   -0.000010   0.000126  -0.065675   0.000000  -0.053574   0.004233
    25  H    0.000000   0.000001   0.003258   0.000000   0.002969  -0.000008
    26  H    0.000000   0.000000  -0.000025  -0.000041  -0.000124   0.000090
    27  H    0.000000   0.000000   0.000000   0.002019   0.000000   0.000000
    28  H    0.000000   0.000000   0.000000   0.001764   0.000000   0.000000
    29  H    0.000000   0.000000   0.000000   0.000106   0.000000   0.000000
    30  H    0.000000   0.000000   0.000000   0.000575   0.000000   0.000000
    31  H    0.000000   0.000000   0.000000   0.001080   0.000000   0.000000
    32  H    0.000000   0.000000   0.000000   0.000194  -0.000004   0.000000
    33  H    0.000000   0.000000   0.000016  -0.000037   0.007646   0.000002
    34  H    0.000000   0.000000   0.000000   0.265154   0.000000   0.000000
    35  H    0.387055  -0.035984  -0.000620   0.000000   0.000000   0.000023
    36  H    0.386873  -0.036403  -0.000533   0.000000   0.000000   0.000020
    37  H    0.397589  -0.025568   0.000162   0.000000   0.000000  -0.000033
    38  H    0.000000   0.000003   0.006066   0.000000   0.002696  -0.005816
    39  H    0.000943  -0.006174   0.002421   0.000000   0.000002  -0.000013
    40  H    0.000000   0.000000  -0.000005   0.000000   0.000000   0.000000
    41  H    0.000000   0.000000  -0.000006   0.000000   0.000001   0.000000
    42  H    0.000000   0.000000   0.000000   0.000000   0.000000   0.000000
             13         14         15         16         17         18
     1  O    0.000000   0.000000   0.000000   0.000000   0.000000   0.000000
     2  C    0.000000   0.000000   0.000000   0.000000   0.000000   0.000000
     3  C    0.000017  -0.000019   0.000000   0.000000   0.000000   0.000000
     4  C   -0.000041   0.000499   0.000000   0.000000   0.000000   0.000000
     5  C    0.000972   0.000640   0.000025  -0.000001   0.000000   0.000000
     6  N    0.261272  -0.098851  -0.073867   0.004261  -0.000073   0.000000
     7  C    0.000000   0.000320   0.000000   0.000000   0.000000   0.000000
     8  O    0.000004  -0.017030   0.000000   0.000000   0.000000   0.000000
     9  C    0.001922  -0.095366   0.000752   0.000034   0.000000   0.000000
    10  O   -0.000001   0.000000  -0.000100   0.003038  -0.083057  -0.000699
    11  N    0.555945   0.000091  -0.080772   0.000848   0.000484  -0.000010
    12  C   -0.039883   0.629636   0.000196  -0.000008   0.000001   0.000000
    13  C    4.287073   0.001408   0.400693  -0.023516   0.003528  -0.000146
    14  O    0.001408   8.194031  -0.000087   0.000000   0.000000   0.000000
    15  C    0.400693  -0.000087   4.920963   0.543547  -0.050078   0.003243
    16  C   -0.023516   0.000000   0.543547   4.900255   0.528448  -0.038908
    17  C    0.003528   0.000000  -0.050078   0.528448   5.078605   0.288728
    18  C   -0.000146   0.000000   0.003243  -0.038908   0.288728   5.166643
    19  C    0.000351   0.000000  -0.027688  -0.019327   0.535956  -0.048301
    20  C    0.002871   0.000000  -0.043602  -0.031641  -0.062653   0.002647
    21  C   -0.000125   0.000000   0.003052   0.000164   0.004022  -0.000106
    22  C   -0.045037  -0.000023   0.519459  -0.043869  -0.040560   0.000558
    23  C   -0.061442   0.002940   0.003178  -0.000016   0.000005   0.000000
    24  C    0.001758   0.000007  -0.000163  -0.000009   0.000000   0.000000
    25  H    0.000059   0.000000  -0.000026   0.000004   0.000000   0.000000
    26  H   -0.001743  -0.000027  -0.034847   0.002330   0.000244   0.000006
    27  H    0.000003   0.000000  -0.000071   0.000003  -0.000107   0.000002
    28  H    0.000001   0.000000  -0.000051   0.000011  -0.000104   0.000002
    29  H   -0.000009   0.000000   0.000368  -0.000027   0.000029   0.000001
    30  H    0.000002   0.000000  -0.000061  -0.000094  -0.050333   0.389318
    31  H    0.000002   0.000000  -0.000026  -0.000251  -0.050729   0.389369
    32  H   -0.000012   0.000000   0.000483  -0.001644  -0.042401   0.399862
    33  H   -0.000909   0.000000  -0.020670   0.373713  -0.032415  -0.003315
    34  H    0.000000   0.000000  -0.000008   0.000165  -0.011018   0.008846
    35  H    0.000000  -0.000020   0.000000   0.000000   0.000000   0.000000
    36  H    0.000000  -0.000019   0.000000   0.000000   0.000000   0.000000
    37  H    0.000000   0.000050   0.000000   0.000000   0.000000   0.000000
    38  H   -0.016538   0.007174  -0.001017  -0.000208  -0.000024   0.000000
    39  H    0.000000   0.000004   0.000000   0.000000   0.000000   0.000000
    40  H    0.000000   0.000000   0.000000   0.000000   0.000000   0.000000
    41  H    0.000000   0.000000   0.000000   0.000000   0.000000   0.000000
    42  H    0.000000   0.000000   0.000000   0.000000   0.000000   0.000000
             19         20         21         22         23         24
     1  O    0.000000   0.000000   0.000000   0.000000   0.003933  -0.048808
     2  C    0.000000   0.000000   0.000000   0.000000  -0.000718  -0.008394
     3  C    0.000000   0.000000   0.000000   0.000000  -0.018223   0.523233
     4  C    0.000000   0.000000   0.000000   0.000000  -0.030814  -0.074366
     5  C    0.000000   0.000000   0.000000   0.000000  -0.023963  -0.028432
     6  N    0.000000   0.000199   0.000000  -0.011169  -0.006219   0.000262
     7  C    0.000000   0.000000   0.000000   0.000000  -0.000005  -0.000010
     8  O    0.000000   0.000000   0.000000   0.000000   0.001375   0.000126
     9  C    0.000000  -0.000001   0.000000  -0.000112   0.460276  -0.065675
    10  O    0.307266  -0.057262  -0.002060   0.002973   0.000000   0.000000
    11  N    0.000013  -0.000076   0.000000   0.001454   0.350721  -0.053574
    12  C    0.000000  -0.000009   0.000000   0.000309  -0.029619   0.004233
    13  C    0.000351   0.002871  -0.000125  -0.045037  -0.061442   0.001758
    14  O    0.000000   0.000000   0.000000  -0.000023   0.002940   0.000007
    15  C   -0.027688  -0.043602   0.003052   0.519459   0.003178  -0.000163
    16  C   -0.019327  -0.031641   0.000164  -0.043869  -0.000016  -0.000009
    17  C    0.535956  -0.062653   0.004022  -0.040560   0.000005   0.000000
    18  C   -0.048301   0.002647  -0.000106   0.000558   0.000000   0.000000
    19  C    4.433442   0.567212  -0.053628  -0.037902   0.000000   0.000000
    20  C    0.567212   4.886995   0.309467   0.570833   0.000002   0.000000
    21  C   -0.053628   0.309467   5.094244  -0.043440   0.000000   0.000000
    22  C   -0.037902   0.570833  -0.043440   5.001318  -0.000015   0.000003
    23  C    0.000000   0.000002   0.000000  -0.000015   4.485268   0.519178
    24  C    0.000000   0.000000   0.000000   0.000003   0.519178   5.198819
    25  H    0.000000   0.000000   0.000000   0.000000  -0.018096   0.371097
    26  H    0.002085  -0.019833  -0.003078   0.369681   0.000011   0.000000
    27  H   -0.006311  -0.038523   0.389991   0.000754   0.000000   0.000000
    28  H   -0.006964  -0.039548   0.392105   0.001118   0.000000   0.000000
    29  H    0.004859  -0.046613   0.397169  -0.005496   0.000000   0.000000
    30  H   -0.002387  -0.000050   0.000003  -0.000004   0.000000   0.000000
    31  H   -0.002271  -0.000060   0.000000   0.000027   0.000000   0.000000
    32  H    0.002470  -0.000013   0.000001  -0.000011   0.000000   0.000000
    33  H    0.000945   0.000219   0.000007   0.002461  -0.000077  -0.000018
    34  H   -0.021735   0.005505  -0.000143  -0.000122   0.000000   0.000000
    35  H    0.000000   0.000000   0.000000   0.000000  -0.000010  -0.000008
    36  H    0.000000   0.000000   0.000000   0.000000  -0.000006  -0.000011
    37  H    0.000000   0.000000   0.000000   0.000000   0.000002   0.000000
    38  H   -0.000011  -0.000152   0.000005   0.005705  -0.000682   0.000006
    39  H    0.000000   0.000000   0.000000   0.000000  -0.000093   0.003902
    40  H    0.000000   0.000000   0.000000   0.000000  -0.000410   0.000845
    41  H    0.000000   0.000000   0.000000   0.000000  -0.000356  -0.000615
    42  H    0.000000   0.000000   0.000000   0.000000   0.000026   0.000515
             25         26         27         28         29         30
     1  O   -0.004701   0.000000   0.000000   0.000000   0.000000   0.000000
     2  C    0.001267   0.000000   0.000000   0.000000   0.000000   0.000000
     3  C   -0.031648   0.000000   0.000000   0.000000   0.000000   0.000000
     4  C    0.002586   0.000000   0.000000   0.000000   0.000000   0.000000
     5  C   -0.000138   0.000000   0.000000   0.000000   0.000000   0.000000
     6  N    0.000019   0.002601   0.000000   0.000000  -0.000004   0.000000
     7  C    0.000000   0.000000   0.000000   0.000000   0.000000   0.000000
     8  O    0.000001   0.000000   0.000000   0.000000   0.000000   0.000000
     9  C    0.003258  -0.000025   0.000000   0.000000   0.000000   0.000000
    10  O    0.000000  -0.000041   0.002019   0.001764   0.000106   0.000575
    11  N    0.002969  -0.000124   0.000000   0.000000   0.000000   0.000000
    12  C   -0.000008   0.000090   0.000000   0.000000   0.000000   0.000000
    13  C    0.000059  -0.001743   0.000003   0.000001  -0.000009   0.000002
    14  O    0.000000  -0.000027   0.000000   0.000000   0.000000   0.000000
    15  C   -0.000026  -0.034847  -0.000071  -0.000051   0.000368  -0.000061
    16  C    0.000004   0.002330   0.000003   0.000011  -0.000027  -0.000094
    17  C    0.000000   0.000244  -0.000107  -0.000104   0.000029  -0.050333
    18  C    0.000000   0.000006   0.000002   0.000002   0.000001   0.389318
    19  C    0.000000   0.002085  -0.006311  -0.006964   0.004859  -0.002387
    20  C    0.000000  -0.019833  -0.038523  -0.039548  -0.046613  -0.000050
    21  C    0.000000  -0.003078   0.389991   0.392105   0.397169   0.000003
    22  C    0.000000   0.369681   0.000754   0.001118  -0.005496  -0.000004
    23  C   -0.018096   0.000011   0.000000   0.000000   0.000000   0.000000
    24  C    0.371097   0.000000   0.000000   0.000000   0.000000   0.000000
    25  H    0.447177   0.000000   0.000000   0.000000   0.000000   0.000000
    26  H    0.000000   0.461847   0.000092   0.000026   0.002580   0.000000
    27  H    0.000000   0.000092   0.514243  -0.026038  -0.024061   0.000001
    28  H    0.000000   0.000026  -0.026038   0.514982  -0.023897  -0.000002
    29  H    0.000000   0.002580  -0.024061  -0.023897   0.526768   0.000000
    30  H    0.000000   0.000000   0.000001  -0.000002   0.000000   0.539069
    31  H    0.000000   0.000000  -0.000001   0.000001   0.000000  -0.034844
    32  H    0.000000   0.000000   0.000000   0.000000   0.000000  -0.018658
    33  H    0.000035  -0.000101   0.000000   0.000000   0.000000   0.000110
    34  H    0.000000   0.000003  -0.000047  -0.000035   0.000001   0.000631
    35  H    0.000000   0.000000   0.000000   0.000000   0.000000   0.000000
    36  H    0.000000   0.000000   0.000000   0.000000   0.000000   0.000000
    37  H    0.000000   0.000000   0.000000   0.000000   0.000000   0.000000
    38  H    0.000000   0.001805  -0.000002   0.000001   0.000003   0.000000
    39  H   -0.000081   0.000000   0.000000   0.000000   0.000000   0.000000
    40  H    0.000131   0.000000   0.000000   0.000000   0.000000   0.000000
    41  H   -0.000253   0.000000   0.000000   0.000000   0.000000   0.000000
    42  H    0.000055   0.000000   0.000000   0.000000   0.000000   0.000000
             31         32         33         34         35         36
     1  O    0.000000   0.000000   0.000000   0.000000  -0.000001   0.000000
     2  C    0.000000   0.000000   0.000000   0.000000   0.000000   0.000000
     3  C    0.000000   0.000000   0.000000   0.000000  -0.000176  -0.000216
     4  C    0.000000   0.000000   0.000000   0.000000   0.000610   0.001490
     5  C    0.000000   0.000000   0.000000   0.000000  -0.003825  -0.003057
     6  N    0.000000   0.000000   0.000128   0.000000   0.000000   0.000000
     7  C    0.000000   0.000000   0.000000   0.000000   0.387055   0.386873
     8  O    0.000000   0.000000   0.000000   0.000000  -0.035984  -0.036403
     9  C    0.000000   0.000000   0.000016   0.000000  -0.000620  -0.000533
    10  O    0.001080   0.000194  -0.000037   0.265154   0.000000   0.000000
    11  N    0.000000  -0.000004   0.007646   0.000000   0.000000   0.000000
    12  C    0.000000   0.000000   0.000002   0.000000   0.000023   0.000020
    13  C    0.000002  -0.000012  -0.000909   0.000000   0.000000   0.000000
    14  O    0.000000   0.000000   0.000000   0.000000  -0.000020  -0.000019
    15  C   -0.000026   0.000483  -0.020670  -0.000008   0.000000   0.000000
    16  C   -0.000251  -0.001644   0.373713   0.000165   0.000000   0.000000
    17  C   -0.050729  -0.042401  -0.032415  -0.011018   0.000000   0.000000
    18  C    0.389369   0.399862  -0.003315   0.008846   0.000000   0.000000
    19  C   -0.002271   0.002470   0.000945  -0.021735   0.000000   0.000000
    20  C   -0.000060  -0.000013   0.000219   0.005505   0.000000   0.000000
    21  C    0.000000   0.000001   0.000007  -0.000143   0.000000   0.000000
    22  C    0.000027  -0.000011   0.002461  -0.000122   0.000000   0.000000
    23  C    0.000000   0.000000  -0.000077   0.000000  -0.000010  -0.000006
    24  C    0.000000   0.000000  -0.000018   0.000000  -0.000008  -0.000011
    25  H    0.000000   0.000000   0.000035   0.000000   0.000000   0.000000
    26  H    0.000000   0.000000  -0.000101   0.000003   0.000000   0.000000
    27  H   -0.000001   0.000000   0.000000  -0.000047   0.000000   0.000000
    28  H    0.000001   0.000000   0.000000  -0.000035   0.000000   0.000000
    29  H    0.000000   0.000000   0.000000   0.000001   0.000000   0.000000
    30  H   -0.034844  -0.018658   0.000110   0.000631   0.000000   0.000000
    31  H    0.539281  -0.018943   0.000046   0.000558   0.000000   0.000000
    32  H   -0.018943   0.473521   0.002184   0.000010   0.000000   0.000000
    33  H    0.000046   0.002184   0.423840  -0.000012   0.000000   0.000000
    34  H    0.000558   0.000010  -0.000012   0.271947   0.000000   0.000000
    35  H    0.000000   0.000000   0.000000   0.000000   0.559868  -0.041513
    36  H    0.000000   0.000000   0.000000   0.000000  -0.041513   0.556808
    37  H    0.000000   0.000000   0.000000   0.000000  -0.027798  -0.027609
    38  H    0.000000   0.000000  -0.000009   0.000000   0.000000   0.000000
    39  H    0.000000   0.000000   0.000000   0.000000  -0.000846  -0.000697
    40  H    0.000000   0.000000   0.000000   0.000000   0.000000   0.000000
    41  H    0.000000   0.000000   0.000000   0.000000   0.000000   0.000000
    42  H    0.000000   0.000000   0.000000   0.000000   0.000000   0.000000
             37         38         39         40         41         42
     1  O    0.000000   0.000000   0.001346  -0.039875  -0.039620  -0.028055
     2  C    0.000000   0.000000  -0.000095   0.390521   0.390623   0.398723
     3  C    0.000013   0.000000  -0.024904  -0.000378  -0.001235   0.001460
     4  C    0.000409   0.000000   0.376053   0.000054  -0.000092   0.000003
     5  C    0.002155   0.000045  -0.032666  -0.000002   0.000005   0.000000
     6  N    0.000000   0.297070   0.000001   0.000000   0.000000   0.000000
     7  C    0.397589   0.000000   0.000943   0.000000   0.000000   0.000000
     8  O   -0.025568   0.000003  -0.006174   0.000000   0.000000   0.000000
     9  C    0.000162   0.006066   0.002421  -0.000005  -0.000006   0.000000
    10  O    0.000000   0.000000   0.000000   0.000000   0.000000   0.000000
    11  N    0.000000   0.002696   0.000002   0.000000   0.000001   0.000000
    12  C   -0.000033  -0.005816  -0.000013   0.000000   0.000000   0.000000
    13  C    0.000000  -0.016538   0.000000   0.000000   0.000000   0.000000
    14  O    0.000050   0.007174   0.000004   0.000000   0.000000   0.000000
    15  C    0.000000  -0.001017   0.000000   0.000000   0.000000   0.000000
    16  C    0.000000  -0.000208   0.000000   0.000000   0.000000   0.000000
    17  C    0.000000  -0.000024   0.000000   0.000000   0.000000   0.000000
    18  C    0.000000   0.000000   0.000000   0.000000   0.000000   0.000000
    19  C    0.000000  -0.000011   0.000000   0.000000   0.000000   0.000000
    20  C    0.000000  -0.000152   0.000000   0.000000   0.000000   0.000000
    21  C    0.000000   0.000005   0.000000   0.000000   0.000000   0.000000
    22  C    0.000000   0.005705   0.000000   0.000000   0.000000   0.000000
    23  C    0.000002  -0.000682  -0.000093  -0.000410  -0.000356   0.000026
    24  C    0.000000   0.000006   0.003902   0.000845  -0.000615   0.000515
    25  H    0.000000   0.000000  -0.000081   0.000131  -0.000253   0.000055
    26  H    0.000000   0.001805   0.000000   0.000000   0.000000   0.000000
    27  H    0.000000  -0.000002   0.000000   0.000000   0.000000   0.000000
    28  H    0.000000   0.000001   0.000000   0.000000   0.000000   0.000000
    29  H    0.000000   0.000003   0.000000   0.000000   0.000000   0.000000
    30  H    0.000000   0.000000   0.000000   0.000000   0.000000   0.000000
    31  H    0.000000   0.000000   0.000000   0.000000   0.000000   0.000000
    32  H    0.000000   0.000000   0.000000   0.000000   0.000000   0.000000
    33  H    0.000000  -0.000009   0.000000   0.000000   0.000000   0.000000
    34  H    0.000000   0.000000   0.000000   0.000000   0.000000   0.000000
    35  H   -0.027798   0.000000  -0.000846   0.000000   0.000000   0.000000
    36  H   -0.027609   0.000000  -0.000697   0.000000   0.000000   0.000000
    37  H    0.478194   0.000000   0.000139   0.000000   0.000000   0.000000
    38  H    0.000000   0.279833   0.000000   0.000000   0.000000   0.000000
    39  H    0.000139   0.000000   0.453863   0.000018   0.000016  -0.000016
    40  H    0.000000   0.000000   0.000018   0.546041  -0.039665  -0.027837
    41  H    0.000000   0.000000   0.000016  -0.039665   0.553147  -0.028475
    42  H    0.000000   0.000000  -0.000016  -0.027837  -0.028475   0.486799
 Mulliken atomic charges:
[...]
 **** Fit      -0.008546
 **** Fit      -0.007742
 **** Fit      -0.006312
 **** Fit      -0.004152
 **** Fit      -0.001762
 **** Fit       0.000281
 **** Fit       0.001712
 **** Fit       0.002505
 **** Fit       0.002718
 **** Fit       0.002398
 **** Fit       0.001572
 **** Fit       0.000247
 **** Fit      -0.001554
 **** Fit      -0.003732
 **** Fit      -0.006022
 **** Fit      -0.007946
 **** Fit      -0.008987
 **** Fit      -0.003197
 **** Fit      -0.000569
 **** Fit       0.001395
 **** Fit       0.002712
 **** Fit       0.003488
 **** Fit       0.003816
 **** Fit       0.003754
 **** Fit       0.003325
 **** Fit       0.002528
 **** Fit       0.001342
 **** Fit      -0.000267
 **** Fit      -0.002327
 **** Fit      -0.004810
 **** Fit      -0.000869
 **** Fit       0.001456
 **** Fit       0.003010
 **** Fit       0.003997
 **** Fit       0.004565
 **** Fit       0.004798
 **** Fit       0.004738
 **** Fit       0.004398
 **** Fit       0.003773
 **** Fit       0.002837
 **** Fit       0.001546
 **** Fit      -0.000168
 **** Fit       0.003399
 **** Fit       0.004448
 **** Fit       0.005118
 **** Fit       0.005509
 **** Fit       0.005670
 **** Fit       0.005622
 **** Fit       0.005370
 **** Fit       0.004904
 **** Fit       0.004205
 **** Fit       0.003240
 **** Fit       0.004908
 **** Fit       0.005589
 **** Fit       0.006052
 **** Fit       0.006342
 **** Fit       0.006474
 **** Fit       0.006449
 **** Fit       0.006263
 **** Fit       0.005906
 **** Fit       0.005362
 **** Fit       0.006425
 **** Fit       0.006691
 **** Fit       0.006946
 **** Fit       0.007144
 **** Fit       0.007259
 **** Fit       0.007273
 **** Fit       0.007172
 **** Fit       0.007766
 **** Fit       0.007770
 **** Fit       0.007888
 **** Fit       0.008021
 **** Fit       0.008120
 **** Fit       0.008004
 **** Fit       0.008180
 **** Fit       0.006816
 **** Fit       0.007187
 **** Fit       0.007522
 **** Fit       0.007819
 **** Fit       0.008082
 **** Fit       0.005383
 **** Fit       0.006074
 **** Fit       0.006569
 **** Fit       0.006926
 **** Fit       0.007177
 **** Fit       0.007339
 **** Fit       0.007422
 **** Fit       0.002760
 **** Fit       0.004181
 **** Fit       0.005131
 **** Fit       0.005765
 **** Fit       0.006173
 **** Fit       0.006408
 **** Fit       0.006498
 **** Fit       0.006458
 **** Fit       0.006294
 **** Fit      -0.000868
 **** Fit       0.001440
 **** Fit       0.003074
 **** Fit       0.004193
 **** Fit       0.004932
 **** Fit       0.005384
 **** Fit       0.005607
 **** Fit       0.005635
 **** Fit       0.005483
 **** Fit       0.005154
 **** Fit      -0.002964
 **** Fit      -0.000415
 **** Fit       0.001559
 **** Fit       0.002973
 **** Fit       0.003917
 **** Fit       0.004479
 **** Fit       0.004727
 **** Fit       0.004702
 **** Fit       0.004422
 **** Fit       0.003880
 **** Fit       0.003045
 **** Fit      -0.008621
 **** Fit      -0.006787
 **** Fit      -0.004530
 **** Fit      -0.002163
 **** Fit      -0.000055
 **** Fit       0.001595
 **** Fit       0.002747
 **** Fit       0.003441
 **** Fit       0.003733
 **** Fit       0.003661
 **** Fit       0.003242
 **** Fit       0.002463
 **** Fit       0.001275
 **** Fit      -0.010112
 **** Fit      -0.008727
 **** Fit      -0.007080
 **** Fit      -0.005254
 **** Fit      -0.003206
 **** Fit      -0.001162
 **** Fit       0.000562
 **** Fit       0.001780
 **** Fit       0.002448
 **** Fit       0.002585
 **** Fit       0.002217
 **** Fit       0.001339
 **** Fit      -0.000079
 **** Fit      -0.002070
 **** Fit      -0.006974
 **** Fit      -0.005770
 **** Fit      -0.003948
 **** Fit      -0.001914
 **** Fit      -0.000133
 **** Fit       0.000979
 **** Fit       0.001243
 **** Fit       0.000638
 **** Fit      -0.000805
 **** Fit      -0.002949
 **** Fit      -0.005304
 **** Fit      -0.006905
 **** Fit      -0.004367
 **** Fit      -0.002970
 **** Fit      -0.001034
 **** Fit      -0.000329
 **** Fit      -0.001482
 **** Fit      -0.003596
 **** Fit      -0.002179
 **** Fit      -0.004209
 **** Fit      -0.000160
 **** Fit      -0.002371
 **** Fit      -0.005099
 **** Fit      -0.008504
 **** Fit      -0.012709
 **** Fit       0.003170
 **** Fit       0.001583
 **** Fit      -0.000215
 **** Fit      -0.002382
 **** Fit      -0.005083
 **** Fit      -0.008491
 **** Fit      -0.012799
 **** Fit      -0.018199
 **** Fit       0.004297
 **** Fit       0.002928
 **** Fit       0.001442
 **** Fit      -0.000290
 **** Fit      -0.002398
 **** Fit      -0.005025
 **** Fit      -0.008341
 **** Fit      -0.012556
 **** Fit      -0.017939
 **** Fit      -0.024813
 **** Fit       0.004942
 **** Fit       0.003665
 **** Fit       0.002300
 **** Fit       0.000728
 **** Fit      -0.001171
 **** Fit      -0.003530
 **** Fit      -0.006508
 **** Fit      -0.010310
 **** Fit      -0.015219
 **** Fit      -0.021630
 **** Fit      -0.030081
 **** Fit       0.005365
 **** Fit       0.004176
 **** Fit       0.002925
 **** Fit       0.001506
 **** Fit      -0.000188
 **** Fit      -0.002272
 **** Fit      -0.004882
 **** Fit      -0.008190
 **** Fit      -0.012437
 **** Fit      -0.017964
 **** Fit      -0.025276
 **** Fit      -0.035110
 **** Fit       0.006060
 **** Fit       0.004915
 **** Fit       0.003766
 **** Fit       0.002511
 **** Fit       0.001053
 **** Fit      -0.000709
 **** Fit      -0.002889
 **** Fit      -0.005624
 **** Fit      -0.009096
 **** Fit      -0.013557
 **** Fit      -0.019379
 **** Fit      -0.027114
 **** Fit      -0.037585
 **** Fit       0.006395
 **** Fit       0.005227
 **** Fit       0.004088
 **** Fit       0.002870
 **** Fit       0.001471
 **** Fit      -0.000213
 **** Fit      -0.002296
 **** Fit      -0.004914
 **** Fit      -0.008242
 **** Fit      -0.012520
 **** Fit      -0.018097
 **** Fit      -0.025483
 **** Fit      -0.035423
 **** Fit       0.005850
 **** Fit       0.004674
 **** Fit       0.003493
 **** Fit       0.002191
 **** Fit       0.000656
 **** Fit      -0.001229
 **** Fit      -0.003593
 **** Fit      -0.006597
 **** Fit      -0.010450
 **** Fit      -0.015439
 **** Fit      -0.021968
 **** Fit      -0.030583
 **** Fit       0.005078
 **** Fit       0.003896
 **** Fit       0.002666
 **** Fit       0.001267
 **** Fit      -0.000418
 **** Fit      -0.002513
 **** Fit      -0.005159
 **** Fit      -0.008527
 **** Fit      -0.012832
 **** Fit      -0.018348
 **** Fit      -0.025398
 **** Fit       0.003939
 **** Fit       0.002659
 **** Fit       0.001240
 **** Fit      -0.000463
 **** Fit      -0.002594
 **** Fit      -0.005309
 **** Fit      -0.008781
 **** Fit      -0.013205
 **** Fit      -0.018768
 **** Fit      -0.025560
 **** Fit       0.002512
 **** Fit       0.001084
 **** Fit      -0.000611
 **** Fit      -0.002741
 **** Fit      -0.005466
 **** Fit      -0.008940
 **** Fit      -0.013277
 **** Fit      -0.018460
 **** Fit      -0.000201
 **** Fit      -0.002198
 **** Fit      -0.004790
 **** Fit      -0.008112
 **** Fit      -0.012158
 **** Fit      -0.003228
 **** Fit      -0.006316
 **** Fit       0.001620
 **** Fit      -0.009347
 **** Fit      -0.000285
 **** Fit       0.007317
 **** Fit      -0.006442
 **** Fit       0.002187
 **** Fit       0.009252
 **** Fit      -0.003368
 **** Fit       0.004281
 **** Fit       0.010421
 **** Fit      -0.002357
 **** Fit       0.004617
 **** Fit       0.010026
 **** Fit      -0.004787
 **** Fit       0.002473
 **** Fit       0.007878
 **** Fit       0.011821
 **** Fit      -0.009026
 **** Fit      -0.000940
 **** Fit       0.004936
 **** Fit       0.009084
 **** Fit       0.011688
 **** Fit      -0.004298
 **** Fit       0.001972
 **** Fit       0.006396
 **** Fit       0.009203
 **** Fit       0.010424
 **** Fit      -0.011255
 **** Fit      -0.003454
 **** Fit       0.002206
 **** Fit       0.006003
 **** Fit       0.008078
 **** Fit       0.008459
 **** Fit      -0.009336
 **** Fit      -0.002635
 **** Fit       0.002226
 **** Fit       0.005275
 **** Fit       0.006585
 **** Fit       0.006283
 **** Fit      -0.009063
 **** Fit      -0.003082
 **** Fit       0.001376
 **** Fit       0.003968
 **** Fit       0.004738
 **** Fit      -0.000104
 **** Fit       0.002285
 **** Fit      -0.004846
 **** Fit      -0.002002
 **** Fit      -0.008219
 **** Fit      -0.004255
 **** Fit      -0.001121
 **** Fit       0.001500
 **** Fit      -0.006288
 **** Fit      -0.002403
 **** Fit       0.000672
 **** Fit       0.003338
 **** Fit      -0.004390
 **** Fit      -0.000787
 **** Fit       0.002117
 **** Fit       0.004690
 **** Fit      -0.007973
 **** Fit      -0.003253
 **** Fit       0.000283
 **** Fit       0.003150
 **** Fit       0.005700
 **** Fit      -0.006595
 **** Fit      -0.002212
 **** Fit       0.001132
 **** Fit       0.003886
 **** Fit       0.006351
 **** Fit      -0.003491
 **** Fit       0.000111
 **** Fit       0.003015
 **** Fit       0.005535
 **** Fit       0.007912
 **** Fit      -0.005700
 **** Fit      -0.001577
 **** Fit       0.001660
 **** Fit       0.004392
 **** Fit       0.006891
 **** Fit      -0.006135
 **** Fit      -0.001972
 **** Fit       0.001337
 **** Fit       0.004168
 **** Fit       0.006817
 **** Fit      -0.006507
 **** Fit      -0.002506
 **** Fit       0.000773
 **** Fit       0.003650
 **** Fit      -0.007856
 **** Fit      -0.003802
 **** Fit      -0.000373
 **** Fit       0.002690
 **** Fit      -0.005313
 **** Fit      -0.001861
 **** Fit       0.001298
 **** Fit      -0.002297
 **** Fit       0.003705
 **** Fit       0.003775
 **** Fit       0.005059
 **** Fit       0.004919
 **** Fit       0.003511
 **** Fit       0.002172
 **** Fit       0.002283
 **** Fit       0.003717
 **** Fit       0.005298
 **** Fit       0.006269
 **** Fit       0.006504
 **** Fit       0.006006
 **** Fit       0.004841
 **** Fit       0.003212
 **** Fit       0.001562
 **** Fit       0.000416
 **** Fit       0.000046
 **** Fit       0.000557
 **** Fit       0.001927
 **** Fit       0.003545
 **** Fit       0.005270
 **** Fit       0.006557
 **** Fit       0.007359
 **** Fit       0.007695
 **** Fit       0.007589
 **** Fit       0.007044
 **** Fit       0.006049
 **** Fit       0.004612
 **** Fit       0.002835
 **** Fit       0.000975
 **** Fit      -0.000602
 **** Fit      -0.001636
 **** Fit      -0.002144
 **** Fit      -0.002183
 **** Fit      -0.001603
 **** Fit      -0.000282
 **** Fit       0.001573
 **** Fit       0.003297
 **** Fit       0.005224
 **** Fit       0.006715
 **** Fit       0.007773
 **** Fit       0.008442
 **** Fit       0.008771
 **** Fit       0.008787
 **** Fit       0.008495
 **** Fit       0.007868
 **** Fit       0.006852
 **** Fit      -0.004445
 **** Fit      -0.004789
 **** Fit      -0.004951
 **** Fit      -0.004554
 **** Fit      -0.003297
 **** Fit      -0.001298
 **** Fit       0.001036
 **** Fit       0.003057
 **** Fit       0.005223
 **** Fit       0.006892
 **** Fit       0.008118
 **** Fit       0.008974
 **** Fit       0.009527
 **** Fit       0.009825
 **** Fit       0.009893
 **** Fit       0.009734
 **** Fit      -0.002517
 **** Fit       0.000419
 **** Fit       0.002982
 **** Fit       0.005308
 **** Fit       0.007083
 **** Fit       0.008408
 **** Fit       0.009381
 **** Fit       0.010081
 **** Fit       0.010567
 **** Fit       0.010875
 **** Fit       0.011026
 **** Fit       0.000035
 **** Fit       0.005780
 **** Fit       0.007597
 **** Fit       0.008954
 **** Fit       0.009974
 **** Fit       0.010746
 **** Fit       0.011334
 **** Fit       0.011780
 **** Fit       0.008350
 **** Fit       0.009615
 **** Fit       0.010611
 **** Fit       0.011414
 **** Fit       0.012078
 **** Fit       0.012640
 **** Fit       0.009516
 **** Fit       0.010546
 **** Fit       0.011447
 **** Fit       0.012242
 **** Fit       0.011482
 **** Fit       0.011945
 **** Fit       0.012464
 **** Fit       0.012969
 **** Fit       0.010560
 **** Fit       0.011194
 **** Fit       0.011744
 **** Fit       0.012207
 **** Fit       0.012598
 **** Fit       0.012934
 **** Fit       0.009732
 **** Fit       0.010552
 **** Fit       0.011156
 **** Fit       0.011602
 **** Fit       0.011929
 **** Fit       0.012165
 **** Fit       0.012329
 **** Fit       0.007609
 **** Fit       0.009012
 **** Fit       0.009958
 **** Fit       0.010594
 **** Fit       0.011014
 **** Fit       0.011271
 **** Fit       0.011401
 **** Fit       0.011424
 **** Fit       0.011356
 **** Fit       0.004557
 **** Fit       0.006814
 **** Fit       0.008326
 **** Fit       0.009323
 **** Fit       0.009961
 **** Fit       0.010341
 **** Fit       0.010523
 **** Fit       0.010542
 **** Fit       0.010417
 **** Fit       0.010152
 **** Fit       0.009734
 **** Fit       0.004033
 **** Fit       0.006294
 **** Fit       0.007813
 **** Fit       0.008781
 **** Fit       0.009348
 **** Fit       0.009612
 **** Fit       0.009631
 **** Fit       0.009434
 **** Fit       0.009027
 **** Fit       0.008386
 **** Fit       0.000850
 **** Fit       0.003750
 **** Fit       0.005856
 **** Fit       0.007276
 **** Fit       0.008138
 **** Fit       0.008563
 **** Fit       0.008636
 **** Fit       0.008403
 **** Fit       0.007877
 **** Fit       0.007034
 **** Fit       0.005821
 **** Fit       0.000920
 **** Fit       0.003570
 **** Fit       0.005499
 **** Fit       0.006746
 **** Fit       0.007376
 **** Fit       0.007487
 **** Fit       0.007142
 **** Fit       0.006364
 **** Fit       0.005139
 **** Fit       0.003450
 **** Fit       0.001358
 **** Fit      -0.003813
 **** Fit      -0.004294
 **** Fit      -0.004339
 **** Fit      -0.003521
 **** Fit      -0.001554
 **** Fit       0.001065
 **** Fit       0.003401
 **** Fit       0.005172
 **** Fit       0.006068
 **** Fit       0.006095
 **** Fit       0.005341
 **** Fit       0.003897
 **** Fit       0.001961
 **** Fit       0.000030
 **** Fit      -0.001245
 **** Fit      -0.001569
 **** Fit      -0.000786
 **** Fit       0.001120
 **** Fit       0.003184
 **** Fit       0.004576
 **** Fit       0.004207
 **** Fit       0.002475
 **** Fit       0.000957
 **** Fit       0.001266
 **** Fit       0.002882
 **** Fit       0.005970
 **** Fit       0.009175
 **** Fit       0.008182
 **** Fit       0.006993
 **** Fit       0.005499
 **** Fit       0.003638
 **** Fit       0.010237
 **** Fit       0.009415
 **** Fit       0.008511
 **** Fit       0.007424
 **** Fit       0.006066
 **** Fit       0.004358
 **** Fit       0.002229
 **** Fit       0.010899
 **** Fit       0.010159
 **** Fit       0.009378
 **** Fit       0.008470
 **** Fit       0.007355
 **** Fit       0.005960
 **** Fit       0.004204
 **** Fit       0.001989
 **** Fit      -0.000817
 **** Fit       0.012157
 **** Fit       0.011410
 **** Fit       0.010737
 **** Fit       0.010052
 **** Fit       0.009283
 **** Fit       0.008363
 **** Fit       0.007231
 **** Fit       0.005823
 **** Fit       0.004060
 **** Fit       0.001836
 **** Fit      -0.001014
 **** Fit       0.012108
 **** Fit       0.011422
 **** Fit       0.010779
 **** Fit       0.010101
 **** Fit       0.009321
 **** Fit       0.008380
 **** Fit       0.007218
 **** Fit       0.005770
 **** Fit       0.003952
 **** Fit       0.001641
 **** Fit      -0.001363
 **** Fit       0.012669
 **** Fit       0.011944
 **** Fit       0.011308
 **** Fit       0.010685
 **** Fit       0.010008
 **** Fit       0.009218
 **** Fit       0.008261
 **** Fit       0.007084
 **** Fit       0.005620
 **** Fit       0.003786
 **** Fit       0.001454
 **** Fit      -0.001588
 **** Fit       0.012902
 **** Fit       0.012140
 **** Fit       0.011490
 **** Fit       0.010876
 **** Fit       0.010230
 **** Fit       0.009493
 **** Fit       0.008614
 **** Fit       0.007541
 **** Fit       0.006214
 **** Fit       0.004560
 **** Fit       0.002474
 **** Fit      -0.000215
 **** Fit      -0.003798
 **** Fit       0.012591
 **** Fit       0.011828
 **** Fit       0.011163
 **** Fit       0.010515
 **** Fit       0.009815
 **** Fit       0.008999
 **** Fit       0.008013
 **** Fit       0.006795
 **** Fit       0.005277
 **** Fit       0.003360
 **** Fit       0.000897
 **** Fit      -0.002362
 **** Fit       0.011913
 **** Fit       0.011158
 **** Fit       0.010459
 **** Fit       0.009731
 **** Fit       0.008900
 **** Fit       0.007898
 **** Fit       0.006657
 **** Fit       0.005098
 **** Fit       0.003113
 **** Fit       0.000536
 **** Fit      -0.002916
 **** Fit       0.011059
 **** Fit       0.010292
 **** Fit       0.009526
 **** Fit       0.008676
 **** Fit       0.007665
 **** Fit       0.006415
 **** Fit       0.004843
 **** Fit       0.002834
 **** Fit       0.000217
 **** Fit      -0.003296
 **** Fit       0.010424
 **** Fit       0.009546
 **** Fit       0.008645
 **** Fit       0.007610
 **** Fit       0.006339
 **** Fit       0.004727
 **** Fit       0.002643
 **** Fit      -0.000102
 **** Fit       0.008613
 **** Fit       0.007538
 **** Fit       0.006256
 **** Fit       0.004634
 **** Fit       0.002531
 **** Fit      -0.000241
 **** Fit       0.005622
 **** Fit       0.003761
 -----------------------------------------------------------------
 Leave Link  602 at Wed Jun  8 11:12:39 2016, MaxMem=    6291456 cpu:       8.8

 Test job not archived.
 1\1\GINC-COMPUTE-2-8\FOpt\RHF\6-31G(d)\C18H18N2O4\DAVE\08-Jun-2016\0\\
 #HF/6-31G* SCF=tight Test Pop=MK iop(6/33=2) iop(6/42=6) opt\\remark l
 ine goes here\\0,1\O,7.5725376063,11.0801959951,-6.6740725989\C,7.3823
 223326,10.2753421467,-5.5413804134\C,6.5748132333,11.2410606577,-7.552
 6353659\C,6.8844036799,12.0731270384,-8.6388805773\C,5.9434969668,12.3
 17522085,-9.6094382549\N,2.4314614015,11.2538990067,-10.2062423267\C,7
 .4190023249,13.7156830661,-10.8292883099\O,6.1731580487,13.0982104127,
 -10.6614191431\C,4.6538396956,11.7282574761,-9.5163598709\O,-2.7666490
 065,8.0432469253,-8.4584546058\N,3.1467005047,10.2932763161,-8.2321655
 929\C,3.6106280185,11.9257562878,-10.5214434912\C,2.236016906,10.48247
 70571,-9.1048277668\O,3.6509740534,12.5551767317,-11.5382441624\C,0.90
 64742151,9.8444874053,-8.9418913742\C,0.8038905102,8.6855548246,-8.185
 6410599\C,-0.4102787444,8.0469903849,-8.0026931889\C,-0.5077981329,6.7
 771108329,-7.1873991208\C,-1.5442158727,8.6046569135,-8.5901927186\C,-
 1.4820149959,9.77536109,-9.3429116429\C,-2.7396902533,10.3542784852,-9
 .9429647247\C,-0.2479433694,10.3763773991,-9.5084502625\C,4.3726095066
 ,10.9033957186,-8.4202106534\C,5.3362524454,10.6584315679,-7.434546572
 9\H,5.0639315573,10.0231870048,-6.6177561093\H,-0.2081576272,11.295557
 4605,-10.0652430122\H,-3.2044362741,9.6532936431,-10.627888365\H,-3.47
 04506078,10.5822779104,-9.1747030334\H,-2.5209392075,11.2661565241,-10
 .4858188577\H,-1.162976867,6.896903315,-6.3271130593\H,-0.8812069777,5
 .9432258767,-7.7779899502\H,0.4652907084,6.4914999217,-6.8099215917\H,
 1.6917658661,8.2823419656,-7.7383527183\H,-2.7346389709,7.2626622344,-
 7.9252026537\H,7.6398702711,14.3884103989,-10.0081151386\H,8.213197674
 8,12.9832241172,-10.9207827545\H,7.3446989023,14.2804219811,-11.745535
 3607\H,1.7318912047,11.3140440791,-10.9121777562\H,7.8651478331,12.499
 8031739,-8.673016497\H,6.5858365331,10.6606085438,-4.9153950064\H,7.16
 02883559,9.251695,-5.8200737462\H,8.3128965508,10.3038110253,-4.995160
 5908\\Version=AM64L-G03RevD.02\State=1-A\HF=-1100.4817581\RMSD=5.109e-
 09\RMSF=1.053e-05\Thermal=0.\Dipole=-0.3181255,-1.3407554,1.3280006\PG
 =C01 [X(C18H18N2O4)]\\@


 SCIENCE IS A VERY HUMAN FORM OF KNOWLEDGE.
 WE ARE ALWAYS AT THE BRINK OF THE KNOWN,
 WE ALWAYS FEEL FORWARD FOR WHAT IS HOPED.
 EVERY JUDGEMENT IN SCIENCE STANDS ON THE EDGE OF ERROR, AND IS PERSONAL.
 SCIENCE IS A TRIBUTE TO WHAT WE CAN KNOW ALTHOUGH WE ARE FALLIBLE.

                     -- J. BRONOWSKI
 Job cpu time:  0 days  1 hours 47 minutes 17.8 seconds.
 File lengths (MBytes):  RWF=    110 Int=      0 D2E=      0 Chk=     17 Scr=      1
 Normal termination of Gaussian 03 at Wed Jun  8 11:12:39 2016.
