 Entering Gaussian System, Link 0=g03
 Initial command:
 /share/apps//g03/l1.exe /state/partition1/mmpbsa.i18021/Gau-18031.inp -scrdir=/state/partition1/mmpbsa.i18021/
 Entering Link 1 = /share/apps//g03/l1.exe PID=     18032.
  
 Copyright (c) 1988,1990,1992,1993,1995,1998,2003,2004, Gaussian, Inc.
                  All Rights Reserved.
  
 This is the Gaussian(R) 03 program.  It is based on the
 the Gaussian(R) 98 system (copyright 1998, Gaussian, Inc.),
 the Gaussian(R) 94 system (copyright 1995, Gaussian, Inc.),
 the Gaussian 92(TM) system (copyright 1992, Gaussian, Inc.),
 the Gaussian 90(TM) system (copyright 1990, Gaussian, Inc.),
 the Gaussian 88(TM) system (copyright 1988, Gaussian, Inc.),
 the Gaussian 86(TM) system (copyright 1986, Carnegie Mellon
 University), and the Gaussian 82(TM) system (copyright 1983,
 Carnegie Mellon University). Gaussian is a federally registered
 trademark of Gaussian, Inc.
  
 This software contains proprietary and confidential information,
 including trade secrets, belonging to Gaussian, Inc.
  
 This software is provided under written license and may be
 used, copied, transmitted, or stored only in accord with that
 written license.
  
 The following legend is applicable only to US Government
 contracts under FAR:
  
                    RESTRICTED RIGHTS LEGEND
  
 Use, reproduction and disclosure by the US Government is
 subject to restrictions as set forth in subparagraphs (a)
 and (c) of the Commercial Computer Software - Restricted
 Rights clause in FAR 52.227-19.
  
 Gaussian, Inc.
 340 Quinnipiac St., Bldg. 40, Wallingford CT 06492
  
  
 ---------------------------------------------------------------
 Warning -- This program may not be used in any manner that
 competes with the business of Gaussian, Inc. or will provide
 assistance to any competitor of Gaussian, Inc.  The licensee
 of this program is prohibited from giving any competitor of
 Gaussian, Inc. access to this program.  By using this program,
 the user acknowledges that Gaussian, Inc. is engaged in the
 business of creating and licensing software in the field of
 computational chemistry and represents and warrants to the
 licensee that it is not a competitor of Gaussian, Inc. and that
 it will not use this program in any manner prohibited above.
 ---------------------------------------------------------------
  

 Cite this work as:
 Gaussian 03, Revision D.02,
 M. J. Frisch, G. W. Trucks, H. B. Schlegel, G. E. Scuseria, 
 M. A. Robb, J. R. Cheeseman, J. A. Montgomery, Jr., T. Vreven, 
 K. N. Kudin, J. C. Burant, J. M. Millam, S. S. Iyengar, J. Tomasi, 
 V. Barone, B. Mennucci, M. Cossi, G. Scalmani, N. Rega, 
 G. A. Petersson, H. Nakatsuji, M. Hada, M. Ehara, K. Toyota, 
 R. Fukuda, J. Hasegawa, M. Ishida, T. Nakajima, Y. Honda, O. Kitao, 
 H. Nakai, M. Klene, X. Li, J. E. Knox, H. P. Hratchian, J. B. Cross, 
 V. Bakken, C. Adamo, J. Jaramillo, R. Gomperts, R. E. Stratmann, 
 O. Yazyev, A. J. Austin, R. Cammi, C. Pomelli, J. W. Ochterski, 
 P. Y. Ayala, K. Morokuma, G. A. Voth, P. Salvador, J. J. Dannenberg, 
 V. G. Zakrzewski, S. Dapprich, A. D. Daniels, M. C. Strain, 
 O. Farkas, D. K. Malick, A. D. Rabuck, K. Raghavachari, 
 J. B. Foresman, J. V. Ortiz, Q. Cui, A. G. Baboul, S. Clifford, 
 J. Cioslowski, B. B. Stefanov, G. Liu, A. Liashenko, P. Piskorz, 
 I. Komaromi, R. L. Martin, D. J. Fox, T. Keith, M. A. Al-Laham, 
 C. Y. Peng, A. Nanayakkara, M. Challacombe, P. M. W. Gill, 
 B. Johnson, W. Chen, M. W. Wong, C. Gonzalez, and J. A. Pople, 
 Gaussian, Inc., Wallingford CT, 2004.
 
 ******************************************
 Gaussian 03:  AM64L-G03RevD.02  1-Mar-2006
                23-Sep-2015 
 ******************************************
 %chk=molecule
 ------------------------------------------------------------
 #HF/6-31G* SCF=tight Test Pop=MK iop(6/33=2) iop(6/42=6) opt
 ------------------------------------------------------------
 1/18=20,38=1/1,3;
 2/9=110,17=6,18=5,40=1/2;
 3/5=1,6=6,7=1,11=9,16=1,25=1,30=1/1,2,3;
 4//1;
 5/5=2,32=2,38=5/2;
 6/7=2,8=2,9=2,10=2,15=8,20=1,28=1,33=2,42=6/1,2;
 7//1,2,3,16;
 1/18=20/3(3);
 2/9=110/2;
 6/7=2,8=2,9=2,10=2,15=8,19=2,20=1,28=1,33=2,42=6/1,2;
 99//99;
 2/9=110/2;
 3/5=1,6=6,7=1,11=9,16=1,25=1,30=1/1,2,3;
 4/5=5,16=3/1;
 5/5=2,32=2,38=5/2;
 7//1,2,3,16;
 1/18=20/3(-5);
 2/9=110/2;
 6/7=2,8=2,9=2,10=2,15=8,19=2,20=1,28=1,33=2,42=6/1,2;
 99/9=1/99;
 ---------------------
 remark line goes here
 ---------------------
 Symbolic Z-matrix:
 Charge =  0 Multiplicity = 1
 C                     17.056   -4.172     13.497 
 C                     15.555   -3.879     13.366 
 N                     15.292   -2.827     12.402 
 C                     14.887   -1.529     12.643 
 C                     14.772   -0.927     11.421 
 C                     15.125   -1.935     10.479 
 N                     15.436   -3.078     11.078 
 C                     14.368    0.465     11.133 
 C                     13.958    1.333     12.169 
 C                     13.57     2.657     11.895 
 C                     13.558    3.142     10.567 
 N                     13.174    4.49      10.252 
 C                     13.962    5.21      9.216 
 C                     14.908    6.245     9.857 
 C                     14.74     4.27      8.257 
 C                     14.082    2.891     8.12 
 N                     14.774    2.085     7.117 
 C                     14.17     0.998     6.466 
 C                     14.912    0.325     5.472 
 C                     14.361   -0.776     4.788 
 C                     13.059   -1.217     5.093 
 C                     12.312   -0.554     6.083 
 C                     12.862    0.548     6.767 
 C                     14.       2.297     9.524 
 C                     14.395    0.971     9.815 
 C                     12.02     5.061     10.707 
 C                     10.986    4.228     11.47 
 O                     11.733    6.245     10.497 
 H                     13.261    5.749     8.575 
 H                     13.06     3.058     7.773 
 H                     17.236   -4.953     14.235 
 H                     17.477   -4.507     12.549 
 H                     17.604   -3.283     13.812 
 H                     15.146   -3.58      14.332 
 H                     15.016   -4.777     13.062 
 H                     14.723   -1.159     13.645 
 H                     15.163   -1.879     9.4 
 H                     13.941    0.994     13.195 
 H                     13.291    3.296     12.721 
 H                     15.466    6.789     9.095 
 H                     14.361    6.982     10.445 
 H                     15.63     5.765     10.518 
 H                     14.838    4.75      7.282 
 H                     15.757    4.132     8.629 
 H                     15.712    2.366     6.849 
 H                     15.914    0.646     5.223 
 H                     14.94    -1.283     4.028 
 H                     12.636   -2.063     4.568 
 H                     11.313   -0.891     6.323 
 H                     12.262    1.025     7.528 
 H                     14.738    0.335     9.014 
 H                     10.918    3.212     11.082 
 H                     11.224    4.192     12.532 
 H                     9.997     4.675     11.371 
 

 GradGradGradGradGradGradGradGradGradGradGradGradGradGradGradGradGradGrad
 Berny optimization.
 Initialization pass.
                           ----------------------------
                           !    Initial Parameters    !
                           ! (Angstroms and Degrees)  !
 --------------------------                            --------------------------
 ! Name  Definition              Value          Derivative Info.                !
 --------------------------------------------------------------------------------
 ! R1    R(1,2)                  1.5349         estimate D2E/DX2                !
 ! R2    R(1,31)                 1.0895         estimate D2E/DX2                !
 ! R3    R(1,32)                 1.09           estimate D2E/DX2                !
 ! R4    R(1,33)                 1.0908         estimate D2E/DX2                !
 ! R5    R(2,3)                  1.4509         estimate D2E/DX2                !
 ! R6    R(2,34)                 1.0908         estimate D2E/DX2                !
 ! R7    R(2,35)                 1.0906         estimate D2E/DX2                !
 ! R8    R(3,4)                  1.3809         estimate D2E/DX2                !
 ! R9    R(3,7)                  1.3553         estimate D2E/DX2                !
 ! R10   R(4,5)                  1.3671         estimate D2E/DX2                !
 ! R11   R(4,36)                 1.0806         estimate D2E/DX2                !
 ! R12   R(5,6)                  1.4241         estimate D2E/DX2                !
 ! R13   R(5,8)                  1.4778         estimate D2E/DX2                !
 ! R14   R(6,7)                  1.3274         estimate D2E/DX2                !
 ! R15   R(6,37)                 1.0811         estimate D2E/DX2                !
 ! R16   R(8,9)                  1.4124         estimate D2E/DX2                !
 ! R17   R(8,25)                 1.4121         estimate D2E/DX2                !
 ! R18   R(9,10)                 1.4066         estimate D2E/DX2                !
 ! R19   R(9,38)                 1.0807         estimate D2E/DX2                !
 ! R20   R(10,11)                1.4138         estimate D2E/DX2                !
 ! R21   R(10,39)                1.0809         estimate D2E/DX2                !
 ! R22   R(11,12)                1.4366         estimate D2E/DX2                !
 ! R23   R(11,24)                1.4132         estimate D2E/DX2                !
 ! R24   R(12,13)                1.4875         estimate D2E/DX2                !
 ! R25   R(12,26)                1.3656         estimate D2E/DX2                !
 ! R26   R(13,14)                1.5418         estimate D2E/DX2                !
 ! R27   R(13,15)                1.552          estimate D2E/DX2                !
 ! R28   R(13,29)                1.0922         estimate D2E/DX2                !
 ! R29   R(14,40)                1.0899         estimate D2E/DX2                !
 ! R30   R(14,41)                1.09           estimate D2E/DX2                !
 ! R31   R(14,42)                1.0902         estimate D2E/DX2                !
 ! R32   R(15,16)                1.5341         estimate D2E/DX2                !
 ! R33   R(15,43)                1.0912         estimate D2E/DX2                !
 ! R34   R(15,44)                1.0917         estimate D2E/DX2                !
 ! R35   R(16,17)                1.461          estimate D2E/DX2                !
 ! R36   R(16,24)                1.5267         estimate D2E/DX2                !
 ! R37   R(16,30)                1.0921         estimate D2E/DX2                !
 ! R38   R(17,18)                1.4036         estimate D2E/DX2                !
 ! R39   R(17,45)                1.0152         estimate D2E/DX2                !
 ! R40   R(18,19)                1.4112         estimate D2E/DX2                !
 ! R41   R(18,23)                1.4156         estimate D2E/DX2                !
 ! R42   R(19,20)                1.4084         estimate D2E/DX2                !
 ! R43   R(19,46)                1.0812         estimate D2E/DX2                !
 ! R44   R(20,21)                1.4081         estimate D2E/DX2                !
 ! R45   R(20,47)                1.0816         estimate D2E/DX2                !
 ! R46   R(21,22)                1.4063         estimate D2E/DX2                !
 ! R47   R(21,48)                1.0818         estimate D2E/DX2                !
 ! R48   R(22,23)                1.4088         estimate D2E/DX2                !
 ! R49   R(22,49)                1.0813         estimate D2E/DX2                !
 ! R50   R(23,50)                1.0801         estimate D2E/DX2                !
 ! R51   R(24,25)                1.4139         estimate D2E/DX2                !
 ! R52   R(25,51)                1.0788         estimate D2E/DX2                !
 ! R53   R(26,27)                1.5314         estimate D2E/DX2                !
 ! R54   R(26,28)                1.2363         estimate D2E/DX2                !
 ! R55   R(27,52)                1.0897         estimate D2E/DX2                !
 ! R56   R(27,53)                1.0889         estimate D2E/DX2                !
 ! R57   R(27,54)                1.0898         estimate D2E/DX2                !
 ! A1    A(2,1,31)             110.8676         estimate D2E/DX2                !
 ! A2    A(2,1,32)             111.2311         estimate D2E/DX2                !
 ! A3    A(2,1,33)             111.1217         estimate D2E/DX2                !
 ! A4    A(31,1,32)            107.7579         estimate D2E/DX2                !
 ! A5    A(31,1,33)            107.7951         estimate D2E/DX2                !
 ! A6    A(32,1,33)            107.914          estimate D2E/DX2                !
 ! A7    A(1,2,3)              111.8616         estimate D2E/DX2                !
 ! A8    A(1,2,34)             110.0848         estimate D2E/DX2                !
 ! A9    A(1,2,35)             110.4825         estimate D2E/DX2                !
 ! A10   A(3,2,34)             108.7645         estimate D2E/DX2                !
 ! A11   A(3,2,35)             108.7982         estimate D2E/DX2                !
 ! A12   A(34,2,35)            106.6937         estimate D2E/DX2                !
 ! A13   A(2,3,4)              128.2237         estimate D2E/DX2                !
 ! A14   A(2,3,7)              119.7053         estimate D2E/DX2                !
 ! A15   A(4,3,7)              112.0704         estimate D2E/DX2                !
 ! A16   A(3,4,5)              106.4146         estimate D2E/DX2                !
 ! A17   A(3,4,36)             121.8813         estimate D2E/DX2                !
 ! A18   A(5,4,36)             131.704          estimate D2E/DX2                !
 ! A19   A(4,5,6)              104.9949         estimate D2E/DX2                !
 ! A20   A(4,5,8)              127.734          estimate D2E/DX2                !
 ! A21   A(6,5,8)              127.2711         estimate D2E/DX2                !
 ! A22   A(5,6,7)              111.6584         estimate D2E/DX2                !
 ! A23   A(5,6,37)             129.2145         estimate D2E/DX2                !
 ! A24   A(7,6,37)             119.1267         estimate D2E/DX2                !
 ! A25   A(3,7,6)              104.8614         estimate D2E/DX2                !
 ! A26   A(5,8,9)              121.0176         estimate D2E/DX2                !
 ! A27   A(5,8,25)             120.9456         estimate D2E/DX2                !
 ! A28   A(9,8,25)             118.0331         estimate D2E/DX2                !
 ! A29   A(8,9,10)             121.0413         estimate D2E/DX2                !
 ! A30   A(8,9,38)             120.5426         estimate D2E/DX2                !
 ! A31   A(10,9,38)            118.4153         estimate D2E/DX2                !
 ! A32   A(9,10,11)            120.5435         estimate D2E/DX2                !
 ! A33   A(9,10,39)            118.6052         estimate D2E/DX2                !
 ! A34   A(11,10,39)           120.8488         estimate D2E/DX2                !
 ! A35   A(10,11,12)           122.0128         estimate D2E/DX2                !
 ! A36   A(10,11,24)           119.0419         estimate D2E/DX2                !
 ! A37   A(12,11,24)           118.8698         estimate D2E/DX2                !
 ! A38   A(11,12,13)           117.7297         estimate D2E/DX2                !
 ! A39   A(11,12,26)           123.0372         estimate D2E/DX2                !
 ! A40   A(13,12,26)           118.5119         estimate D2E/DX2                !
 ! A41   A(12,13,14)           111.126          estimate D2E/DX2                !
 ! A42   A(12,13,15)           113.751          estimate D2E/DX2                !
 ! A43   A(12,13,29)           107.9165         estimate D2E/DX2                !
 ! A44   A(14,13,15)           110.85           estimate D2E/DX2                !
 ! A45   A(14,13,29)           107.8507         estimate D2E/DX2                !
 ! A46   A(15,13,29)           104.952          estimate D2E/DX2                !
 ! A47   A(13,14,40)           111.0096         estimate D2E/DX2                !
 ! A48   A(13,14,41)           111.7319         estimate D2E/DX2                !
 ! A49   A(13,14,42)           111.2756         estimate D2E/DX2                !
 ! A50   A(40,14,41)           107.2527         estimate D2E/DX2                !
 ! A51   A(40,14,42)           107.733          estimate D2E/DX2                !
 ! A52   A(41,14,42)           107.6354         estimate D2E/DX2                !
 ! A53   A(13,15,16)           112.6205         estimate D2E/DX2                !
 ! A54   A(13,15,43)           109.3131         estimate D2E/DX2                !
 ! A55   A(13,15,44)           109.452          estimate D2E/DX2                !
 ! A56   A(16,15,43)           110.7418         estimate D2E/DX2                !
 ! A57   A(16,15,44)           108.4446         estimate D2E/DX2                !
 ! A58   A(43,15,44)           106.0472         estimate D2E/DX2                !
 ! A59   A(15,16,17)           110.736          estimate D2E/DX2                !
 ! A60   A(15,16,24)           106.8973         estimate D2E/DX2                !
 ! A61   A(15,16,30)           106.9955         estimate D2E/DX2                !
 ! A62   A(17,16,24)           116.2407         estimate D2E/DX2                !
 ! A63   A(17,16,30)           108.0269         estimate D2E/DX2                !
 ! A64   A(24,16,30)           107.5431         estimate D2E/DX2                !
 ! A65   A(16,17,18)           122.8075         estimate D2E/DX2                !
 ! A66   A(16,17,45)           117.7855         estimate D2E/DX2                !
 ! A67   A(18,17,45)           119.3082         estimate D2E/DX2                !
 ! A68   A(17,18,19)           118.0175         estimate D2E/DX2                !
 ! A69   A(17,18,23)           123.0355         estimate D2E/DX2                !
 ! A70   A(19,18,23)           118.9462         estimate D2E/DX2                !
 ! A71   A(18,19,20)           120.6088         estimate D2E/DX2                !
 ! A72   A(18,19,46)           120.5233         estimate D2E/DX2                !
 ! A73   A(20,19,46)           118.8679         estimate D2E/DX2                !
 ! A74   A(19,20,21)           120.0911         estimate D2E/DX2                !
 ! A75   A(19,20,47)           119.8842         estimate D2E/DX2                !
 ! A76   A(21,20,47)           120.0246         estimate D2E/DX2                !
 ! A77   A(20,21,22)           119.7352         estimate D2E/DX2                !
 ! A78   A(20,21,48)           120.0904         estimate D2E/DX2                !
 ! A79   A(22,21,48)           120.1744         estimate D2E/DX2                !
 ! A80   A(21,22,23)           120.2115         estimate D2E/DX2                !
 ! A81   A(21,22,49)           120.0052         estimate D2E/DX2                !
 ! A82   A(23,22,49)           119.7831         estimate D2E/DX2                !
 ! A83   A(18,23,22)           120.4071         estimate D2E/DX2                !
 ! A84   A(18,23,50)           121.513          estimate D2E/DX2                !
 ! A85   A(22,23,50)           118.0764         estimate D2E/DX2                !
 ! A86   A(11,24,16)           117.5728         estimate D2E/DX2                !
 ! A87   A(11,24,25)           119.7517         estimate D2E/DX2                !
 ! A88   A(16,24,25)           122.6275         estimate D2E/DX2                !
 ! A89   A(8,25,24)            121.5234         estimate D2E/DX2                !
 ! A90   A(8,25,51)            119.2007         estimate D2E/DX2                !
 ! A91   A(24,25,51)           119.2704         estimate D2E/DX2                !
 ! A92   A(12,26,27)           120.6072         estimate D2E/DX2                !
 ! A93   A(12,26,28)           122.6872         estimate D2E/DX2                !
 ! A94   A(27,26,28)           116.6691         estimate D2E/DX2                !
 ! A95   A(26,27,52)           111.8322         estimate D2E/DX2                !
 ! A96   A(26,27,53)           110.8744         estimate D2E/DX2                !
 ! A97   A(26,27,54)           110.1431         estimate D2E/DX2                !
 ! A98   A(52,27,53)           109.2731         estimate D2E/DX2                !
 ! A99   A(52,27,54)           107.0643         estimate D2E/DX2                !
 ! A100  A(53,27,54)           107.4872         estimate D2E/DX2                !
 ! D1    D(31,1,2,3)           179.1467         estimate D2E/DX2                !
 ! D2    D(31,1,2,34)           58.0989         estimate D2E/DX2                !
 ! D3    D(31,1,2,35)          -59.487          estimate D2E/DX2                !
 ! D4    D(32,1,2,3)           -60.9674         estimate D2E/DX2                !
 ! D5    D(32,1,2,34)          177.9848         estimate D2E/DX2                !
 ! D6    D(32,1,2,35)           60.3989         estimate D2E/DX2                !
 ! D7    D(33,1,2,3)            59.2864         estimate D2E/DX2                !
 ! D8    D(33,1,2,34)          -61.7614         estimate D2E/DX2                !
 ! D9    D(33,1,2,35)         -179.3473         estimate D2E/DX2                !
 ! D10   D(1,2,3,4)           -107.6395         estimate D2E/DX2                !
 ! D11   D(1,2,3,7)             72.6492         estimate D2E/DX2                !
 ! D12   D(34,2,3,4)            14.1702         estimate D2E/DX2                !
 ! D13   D(34,2,3,7)          -165.5411         estimate D2E/DX2                !
 ! D14   D(35,2,3,4)           130.0266         estimate D2E/DX2                !
 ! D15   D(35,2,3,7)           -49.6846         estimate D2E/DX2                !
 ! D16   D(2,3,4,5)           -179.907          estimate D2E/DX2                !
 ! D17   D(2,3,4,36)             0.237          estimate D2E/DX2                !
 ! D18   D(7,3,4,5)             -0.1776         estimate D2E/DX2                !
 ! D19   D(7,3,4,36)           179.9664         estimate D2E/DX2                !
 ! D20   D(2,3,7,6)            179.9228         estimate D2E/DX2                !
 ! D21   D(4,3,7,6)              0.1675         estimate D2E/DX2                !
 ! D22   D(3,4,5,6)              0.1089         estimate D2E/DX2                !
 ! D23   D(3,4,5,8)           -179.9771         estimate D2E/DX2                !
 ! D24   D(36,4,5,6)           179.9451         estimate D2E/DX2                !
 ! D25   D(36,4,5,8)            -0.1409         estimate D2E/DX2                !
 ! D26   D(4,5,6,7)             -0.0106         estimate D2E/DX2                !
 ! D27   D(4,5,6,37)           179.795          estimate D2E/DX2                !
 ! D28   D(8,5,6,7)           -179.9251         estimate D2E/DX2                !
 ! D29   D(8,5,6,37)            -0.1195         estimate D2E/DX2                !
 ! D30   D(4,5,8,9)             -4.1645         estimate D2E/DX2                !
 ! D31   D(4,5,8,25)           175.1162         estimate D2E/DX2                !
 ! D32   D(6,5,8,9)            175.7311         estimate D2E/DX2                !
 ! D33   D(6,5,8,25)            -4.9882         estimate D2E/DX2                !
 ! D34   D(5,6,7,3)             -0.0937         estimate D2E/DX2                !
 ! D35   D(37,6,7,3)          -179.9212         estimate D2E/DX2                !
 ! D36   D(5,8,9,10)          -179.8316         estimate D2E/DX2                !
 ! D37   D(5,8,9,38)             0.5193         estimate D2E/DX2                !
 ! D38   D(25,8,9,10)            0.8673         estimate D2E/DX2                !
 ! D39   D(25,8,9,38)         -178.7818         estimate D2E/DX2                !
 ! D40   D(5,8,25,24)          179.4373         estimate D2E/DX2                !
 ! D41   D(5,8,25,51)           -1.4232         estimate D2E/DX2                !
 ! D42   D(9,8,25,24)           -1.2611         estimate D2E/DX2                !
 ! D43   D(9,8,25,51)          177.8785         estimate D2E/DX2                !
 ! D44   D(8,9,10,11)            1.203          estimate D2E/DX2                !
 ! D45   D(8,9,10,39)         -178.2335         estimate D2E/DX2                !
 ! D46   D(38,9,10,11)        -179.1405         estimate D2E/DX2                !
 ! D47   D(38,9,10,39)           1.4229         estimate D2E/DX2                !
 ! D48   D(9,10,11,12)        -179.678          estimate D2E/DX2                !
 ! D49   D(9,10,11,24)          -2.8738         estimate D2E/DX2                !
 ! D50   D(39,10,11,12)         -0.2542         estimate D2E/DX2                !
 ! D51   D(39,10,11,24)        176.5501         estimate D2E/DX2                !
 ! D52   D(10,11,12,13)        139.3066         estimate D2E/DX2                !
 ! D53   D(10,11,12,26)        -50.5821         estimate D2E/DX2                !
 ! D54   D(24,11,12,13)        -37.503          estimate D2E/DX2                !
 ! D55   D(24,11,12,26)        132.6083         estimate D2E/DX2                !
 ! D56   D(10,11,24,16)       -175.0774         estimate D2E/DX2                !
 ! D57   D(10,11,24,25)          2.4705         estimate D2E/DX2                !
 ! D58   D(12,11,24,16)          1.8284         estimate D2E/DX2                !
 ! D59   D(12,11,24,25)        179.3763         estimate D2E/DX2                !
 ! D60   D(11,12,13,14)       -104.522          estimate D2E/DX2                !
 ! D61   D(11,12,13,15)         21.4152         estimate D2E/DX2                !
 ! D62   D(11,12,13,29)        137.4244         estimate D2E/DX2                !
 ! D63   D(26,12,13,14)         84.9077         estimate D2E/DX2                !
 ! D64   D(26,12,13,15)       -149.155          estimate D2E/DX2                !
 ! D65   D(26,12,13,29)        -33.1458         estimate D2E/DX2                !
 ! D66   D(11,12,26,27)         -6.5936         estimate D2E/DX2                !
 ! D67   D(11,12,26,28)        175.6769         estimate D2E/DX2                !
 ! D68   D(13,12,26,27)        163.4446         estimate D2E/DX2                !
 ! D69   D(13,12,26,28)        -14.2849         estimate D2E/DX2                !
 ! D70   D(12,13,14,40)       -178.5642         estimate D2E/DX2                !
 ! D71   D(12,13,14,41)        -58.888          estimate D2E/DX2                !
 ! D72   D(12,13,14,42)         61.4567         estimate D2E/DX2                !
 ! D73   D(15,13,14,40)         53.9041         estimate D2E/DX2                !
 ! D74   D(15,13,14,41)        173.5802         estimate D2E/DX2                !
 ! D75   D(15,13,14,42)        -66.075          estimate D2E/DX2                !
 ! D76   D(29,13,14,40)        -60.4709         estimate D2E/DX2                !
 ! D77   D(29,13,14,41)         59.2053         estimate D2E/DX2                !
 ! D78   D(29,13,14,42)        179.5501         estimate D2E/DX2                !
 ! D79   D(12,13,15,16)         26.6637         estimate D2E/DX2                !
 ! D80   D(12,13,15,43)        150.2076         estimate D2E/DX2                !
 ! D81   D(12,13,15,44)        -94.0444         estimate D2E/DX2                !
 ! D82   D(14,13,15,16)        152.7466         estimate D2E/DX2                !
 ! D83   D(14,13,15,43)        -83.7095         estimate D2E/DX2                !
 ! D84   D(14,13,15,44)         32.0385         estimate D2E/DX2                !
 ! D85   D(29,13,15,16)        -91.0715         estimate D2E/DX2                !
 ! D86   D(29,13,15,43)         32.4725         estimate D2E/DX2                !
 ! D87   D(29,13,15,44)        148.2205         estimate D2E/DX2                !
 ! D88   D(13,15,16,17)        174.7278         estimate D2E/DX2                !
 ! D89   D(13,15,16,24)        -57.7475         estimate D2E/DX2                !
 ! D90   D(13,15,16,30)         57.2296         estimate D2E/DX2                !
 ! D91   D(43,15,16,17)         51.9814         estimate D2E/DX2                !
 ! D92   D(43,15,16,24)        179.5061         estimate D2E/DX2                !
 ! D93   D(43,15,16,30)        -65.5168         estimate D2E/DX2                !
 ! D94   D(44,15,16,17)        -63.9884         estimate D2E/DX2                !
 ! D95   D(44,15,16,24)         63.5362         estimate D2E/DX2                !
 ! D96   D(44,15,16,30)        178.5133         estimate D2E/DX2                !
 ! D97   D(15,16,17,18)       -158.2892         estimate D2E/DX2                !
 ! D98   D(15,16,17,45)         18.0667         estimate D2E/DX2                !
 ! D99   D(24,16,17,18)         79.4943         estimate D2E/DX2                !
 ! D100  D(24,16,17,45)       -104.1498         estimate D2E/DX2                !
 ! D101  D(30,16,17,18)        -41.4247         estimate D2E/DX2                !
 ! D102  D(30,16,17,45)        134.9313         estimate D2E/DX2                !
 ! D103  D(15,16,24,11)         44.6127         estimate D2E/DX2                !
 ! D104  D(15,16,24,25)       -132.8595         estimate D2E/DX2                !
 ! D105  D(17,16,24,11)        168.8274         estimate D2E/DX2                !
 ! D106  D(17,16,24,25)         -8.6448         estimate D2E/DX2                !
 ! D107  D(30,16,24,11)        -69.9959         estimate D2E/DX2                !
 ! D108  D(30,16,24,25)        112.5319         estimate D2E/DX2                !
 ! D109  D(16,17,18,19)        177.3025         estimate D2E/DX2                !
 ! D110  D(16,17,18,23)         -3.0417         estimate D2E/DX2                !
 ! D111  D(45,17,18,19)          0.9997         estimate D2E/DX2                !
 ! D112  D(45,17,18,23)       -179.3445         estimate D2E/DX2                !
 ! D113  D(17,18,19,20)        179.7518         estimate D2E/DX2                !
 ! D114  D(17,18,19,46)         -0.2176         estimate D2E/DX2                !
 ! D115  D(23,18,19,20)          0.0815         estimate D2E/DX2                !
 ! D116  D(23,18,19,46)       -179.8879         estimate D2E/DX2                !
 ! D117  D(17,18,23,22)       -179.6876         estimate D2E/DX2                !
 ! D118  D(17,18,23,50)         -0.3801         estimate D2E/DX2                !
 ! D119  D(19,18,23,22)         -0.0347         estimate D2E/DX2                !
 ! D120  D(19,18,23,50)        179.2728         estimate D2E/DX2                !
 ! D121  D(18,19,20,21)         -0.057          estimate D2E/DX2                !
 ! D122  D(18,19,20,47)        179.9792         estimate D2E/DX2                !
 ! D123  D(46,19,20,21)        179.9129         estimate D2E/DX2                !
 ! D124  D(46,19,20,47)         -0.0509         estimate D2E/DX2                !
 ! D125  D(19,20,21,22)         -0.0154         estimate D2E/DX2                !
 ! D126  D(19,20,21,48)       -179.9666         estimate D2E/DX2                !
 ! D127  D(47,20,21,22)        179.9483         estimate D2E/DX2                !
 ! D128  D(47,20,21,48)         -0.0029         estimate D2E/DX2                !
 ! D129  D(20,21,22,23)          0.062          estimate D2E/DX2                !
 ! D130  D(20,21,22,49)       -179.798          estimate D2E/DX2                !
 ! D131  D(48,21,22,23)       -179.9869         estimate D2E/DX2                !
 ! D132  D(48,21,22,49)          0.1531         estimate D2E/DX2                !
 ! D133  D(21,22,23,18)         -0.0368         estimate D2E/DX2                !
 ! D134  D(21,22,23,50)       -179.3676         estimate D2E/DX2                !
 ! D135  D(49,22,23,18)        179.8235         estimate D2E/DX2                !
 ! D136  D(49,22,23,50)          0.4926         estimate D2E/DX2                !
 ! D137  D(11,24,25,8)          -0.4123         estimate D2E/DX2                !
 ! D138  D(11,24,25,51)       -179.5513         estimate D2E/DX2                !
 ! D139  D(16,24,25,8)         177.0068         estimate D2E/DX2                !
 ! D140  D(16,24,25,51)         -2.1322         estimate D2E/DX2                !
 ! D141  D(12,26,27,52)        -36.1518         estimate D2E/DX2                !
 ! D142  D(12,26,27,53)         86.079          estimate D2E/DX2                !
 ! D143  D(12,26,27,54)       -155.0766         estimate D2E/DX2                !
 ! D144  D(28,26,27,52)        141.7098         estimate D2E/DX2                !
 ! D145  D(28,26,27,53)        -96.0594         estimate D2E/DX2                !
 ! D146  D(28,26,27,54)         22.785          estimate D2E/DX2                !
 --------------------------------------------------------------------------------
 Trust Radius=3.00D-01 FncErr=1.00D-07 GrdErr=1.00D-07
 Number of steps in this run= 313 maximum allowed number of steps= 324.
 GradGradGradGradGradGradGradGradGradGradGradGradGradGradGradGradGradGrad

 Stoichiometry    C23H26N4O
 Framework group  C1[X(C23H26N4O)]
 Deg. of freedom   156
 Full point group                 C1
 Largest Abelian subgroup         C1      NOp   1
 Largest concise Abelian subgroup C1      NOp   1
                         Standard orientation:                         
 ---------------------------------------------------------------------
 Center     Atomic     Atomic              Coordinates (Angstroms)
 Number     Number      Type              X           Y           Z
 ---------------------------------------------------------------------
    1          6             0       -6.884341   -1.830683   -1.099953
    2          6             0       -6.156714   -1.816970    0.251484
    3          7             0       -4.827004   -1.246568    0.143398
    4          6             0       -3.610617   -1.897542    0.202963
    5          6             0       -2.650248   -0.936259    0.052834
    6          6             0       -3.369861    0.284147   -0.091397
    7          7             0       -4.681606    0.089074   -0.034452
    8          6             0       -1.183575   -1.116832    0.043417
    9          6             0       -0.604418   -2.381660    0.287567
   10          6             0        0.791675   -2.553386    0.282190
   11          6             0        1.650088   -1.452957    0.056053
   12          7             0        3.079651   -1.593574    0.037075
   13          6             0        3.835893   -0.836900   -0.996454
   14          6             0        4.309901   -1.767450   -2.130656
   15          6             0        3.064174    0.382137   -1.568262
   16          6             0        2.039761    0.949615   -0.577341
   17          7             0        1.427520    2.166179   -1.106154
   18          6             0        0.813568    3.126561   -0.287060
   19          6             0        0.305218    4.292240   -0.898863
   20          6             0       -0.325990    5.288930   -0.129549
   21          6             0       -0.456563    5.128771    1.263293
   22          6             0        0.045361    3.970051    1.882257
   23          6             0        0.677757    2.973028    1.113635
   24          6             0        1.085024   -0.188585   -0.225555
   25          6             0       -0.320158   -0.032231   -0.224985
   26          6             0        3.779283   -2.220522    1.028152
   27          6             0        3.074715   -2.684944    2.306084
   28          8             0        5.000000   -2.406612    0.968611
   29          1             0        4.721858   -0.411386   -0.520212
   30          1             0        2.586223    1.213447    0.330708
   31          1             0       -7.874212   -2.275443   -1.003267
   32          1             0       -7.010289   -0.820924   -1.490716
   33          1             0       -6.329448   -2.409772   -1.839277
   34          1             0       -6.072428   -2.832029    0.641854
   35          1             0       -6.725734   -1.245295    0.985477
   36          1             0       -3.541812   -2.966996    0.342010
   37          1             0       -2.992631    1.287772   -0.230158
   38          1             0       -1.227846   -3.243632    0.477903
   39          1             0        1.191855   -3.544216    0.445131
   40          1             0        4.885277   -1.215779   -2.873990
   41          1             0        4.948503   -2.567434   -1.756043
   42          1             0        3.465353   -2.230700   -2.641287
   43          1             0        3.776944    1.151217   -1.870096
   44          1             0        2.537626    0.085237   -2.477280
   45          1             0        1.503347    2.339087   -2.103641
   46          1             0        0.393475    4.434938   -1.966989
   47          1             0       -0.711073    6.177876   -0.610566
   48          1             0       -0.941868    5.894075    1.854106
   49          1             0       -0.055449    3.841063    2.951074
   50          1             0        1.041185    2.092590    1.622948
   51          1             0       -0.743365    0.934642   -0.448142
   52          1             0        2.292799   -1.990754    2.612892
   53          1             0        2.643579   -3.676026    2.173179
   54          1             0        3.788600   -2.745799    3.127299
 ---------------------------------------------------------------------
 Rotational constants (GHZ):      0.1914668      0.1164962      0.0817522
 Standard basis: 6-31G(d) (6D, 7F)
 There are   472 symmetry adapted basis functions of A   symmetry.
 Integral buffers will be    131072 words long.
 Raffenetti 1 integral format.
 Two-electron integral symmetry is turned on.
   472 basis functions,   888 primitive gaussians,   472 cartesian basis functions
   100 alpha electrons      100 beta electrons
       nuclear repulsion energy      2508.2640930988 Hartrees.
 NAtoms=   54 NActive=   54 NUniq=   54 SFac= 7.50D-01 NAtFMM=   80 NAOKFM=F Big=F
 One-electron integrals computed using PRISM.
 NBasis=   472 RedAO= T  NBF=   472
 NBsUse=   472 1.00D-06 NBFU=   472
 Harris functional with IExCor=  205 diagonalized for initial guess.
 ExpMin= 1.61D-01 ExpMax= 5.48D+03 ExpMxC= 8.25D+02 IAcc=1 IRadAn=         1 AccDes= 1.00D-06
 HarFok:  IExCor= 205 AccDes= 1.00D-06 IRadAn=         1 IDoV=1
 ScaDFX=  1.000000  1.000000  1.000000  1.000000
 Initial guess orbital symmetries:
       Occupied  (A) (A) (A) (A) (A) (A) (A) (A) (A) (A) (A) (A)
                 (A) (A) (A) (A) (A) (A) (A) (A) (A) (A) (A) (A)
                 (A) (A) (A) (A) (A) (A) (A) (A) (A) (A) (A) (A)
                 (A) (A) (A) (A) (A) (A) (A) (A) (A) (A) (A) (A)
                 (A) (A) (A) (A) (A) (A) (A) (A) (A) (A) (A) (A)
                 (A) (A) (A) (A) (A) (A) (A) (A) (A) (A) (A) (A)
                 (A) (A) (A) (A) (A) (A) (A) (A) (A) (A) (A) (A)
                 (A) (A) (A) (A) (A) (A) (A) (A) (A) (A) (A) (A)
                 (A) (A) (A) (A)
       Virtual   (A) (A) (A) (A) (A) (A) (A) (A) (A) (A) (A) (A)
                 (A) (A) (A) (A) (A) (A) (A) (A) (A) (A) (A) (A)
                 (A) (A) (A) (A) (A) (A) (A) (A) (A) (A) (A) (A)
                 (A) (A) (A) (A) (A) (A) (A) (A) (A) (A) (A) (A)
                 (A) (A) (A) (A) (A) (A) (A) (A) (A) (A) (A) (A)
                 (A) (A) (A) (A) (A) (A) (A) (A) (A) (A) (A) (A)
                 (A) (A) (A) (A) (A) (A) (A) (A) (A) (A) (A) (A)
                 (A) (A) (A) (A) (A) (A) (A) (A) (A) (A) (A) (A)
                 (A) (A) (A) (A) (A) (A) (A) (A) (A) (A) (A) (A)
                 (A) (A) (A) (A) (A) (A) (A) (A) (A) (A) (A) (A)
                 (A) (A) (A) (A) (A) (A) (A) (A) (A) (A) (A) (A)
                 (A) (A) (A) (A) (A) (A) (A) (A) (A) (A) (A) (A)
                 (A) (A) (A) (A) (A) (A) (A) (A) (A) (A) (A) (A)
                 (A) (A) (A) (A) (A) (A) (A) (A) (A) (A) (A) (A)
                 (A) (A) (A) (A) (A) (A) (A) (A) (A) (A) (A) (A)
                 (A) (A) (A) (A) (A) (A) (A) (A) (A) (A) (A) (A)
                 (A) (A) (A) (A) (A) (A) (A) (A) (A) (A) (A) (A)
                 (A) (A) (A) (A) (A) (A) (A) (A) (A) (A) (A) (A)
                 (A) (A) (A) (A) (A) (A) (A) (A) (A) (A) (A) (A)
                 (A) (A) (A) (A) (A) (A) (A) (A) (A) (A) (A) (A)
                 (A) (A) (A) (A) (A) (A) (A) (A) (A) (A) (A) (A)
                 (A) (A) (A) (A) (A) (A) (A) (A) (A) (A) (A) (A)
                 (A) (A) (A) (A) (A) (A) (A) (A) (A) (A) (A) (A)
                 (A) (A) (A) (A) (A) (A) (A) (A) (A) (A) (A) (A)
                 (A) (A) (A) (A) (A) (A) (A) (A) (A) (A) (A) (A)
                 (A) (A) (A) (A) (A) (A) (A) (A) (A) (A) (A) (A)
                 (A) (A) (A) (A) (A) (A) (A) (A) (A) (A) (A) (A)
                 (A) (A) (A) (A) (A) (A) (A) (A) (A) (A) (A) (A)
                 (A) (A) (A) (A) (A) (A) (A) (A) (A) (A) (A) (A)
                 (A) (A) (A) (A) (A) (A) (A) (A) (A) (A) (A) (A)
                 (A) (A) (A) (A) (A) (A) (A) (A) (A) (A) (A) (A)
 The electronic state of the initial guess is 1-A.
 Requested convergence on RMS density matrix=1.00D-08 within 128 cycles.
 Requested convergence on MAX density matrix=1.00D-06.
 Requested convergence on             energy=1.00D-06.
 No special actions if energy rises.
 Integral accuracy reduced to 1.0D-05 until final iterations.
 Initial convergence to 1.0D-05 achieved.  Increase integral accuracy.
 SCF Done:  E(RHF) =  -1178.74971170     A.U. after   16 cycles
             Convg  =    0.7893D-08             -V/T =  2.0025
             S**2   =   0.0000

 **********************************************************************

            Population analysis using the SCF density.

 **********************************************************************

 Orbital symmetries:
 BldTbl:  Degeneracy threshold= 1.00D-02
       Occupied  (A) (A) (A) (A) (A) (A) (A) (A) (A) (A) (A) (A)
                 (A) (A) (A) (A) (A) (A) (A) (A) (A) (A) (A) (A)
                 (A) (A) (A) (A) (A) (A) (A) (A) (A) (A) (A) (A)
                 (A) (A) (A) (A) (A) (A) (A) (A) (A) (A) (A) (A)
                 (A) (A) (A) (A) (A) (A) (A) (A) (A) (A) (A) (A)
                 (A) (A) (A) (A) (A) (A) (A) (A) (A) (A) (A) (A)
                 (A) (A) (A) (A) (A) (A) (A) (A) (A) (A) (A) (A)
                 (A) (A) (A) (A) (A) (A) (A) (A) (A) (A) (A) (A)
                 (A) (A) (A) (A)
       Virtual   (A) (A) (A) (A) (A) (A) (A) (A) (A) (A) (A) (A)
                 (A) (A) (A) (A) (A) (A) (A) (A) (A) (A) (A) (A)
                 (A) (A) (A) (A) (A) (A) (A) (A) (A) (A) (A) (A)
                 (A) (A) (A) (A) (A) (A) (A) (A) (A) (A) (A) (A)
                 (A) (A) (A) (A) (A) (A) (A) (A) (A) (A) (A) (A)
                 (A) (A) (A) (A) (A) (A) (A) (A) (A) (A) (A) (A)
                 (A) (A) (A) (A) (A) (A) (A) (A) (A) (A) (A) (A)
                 (A) (A) (A) (A) (A) (A) (A) (A) (A) (A) (A) (A)
                 (A) (A) (A) (A) (A) (A) (A) (A) (A) (A) (A) (A)
                 (A) (A) (A) (A) (A) (A) (A) (A) (A) (A) (A) (A)
                 (A) (A) (A) (A) (A) (A) (A) (A) (A) (A) (A) (A)
                 (A) (A) (A) (A) (A) (A) (A) (A) (A) (A) (A) (A)
                 (A) (A) (A) (A) (A) (A) (A) (A) (A) (A) (A) (A)
                 (A) (A) (A) (A) (A) (A) (A) (A) (A) (A) (A) (A)
                 (A) (A) (A) (A) (A) (A) (A) (A) (A) (A) (A) (A)
                 (A) (A) (A) (A) (A) (A) (A) (A) (A) (A) (A) (A)
                 (A) (A) (A) (A) (A) (A) (A) (A) (A) (A) (A) (A)
                 (A) (A) (A) (A) (A) (A) (A) (A) (A) (A) (A) (A)
                 (A) (A) (A) (A) (A) (A) (A) (A) (A) (A) (A) (A)
                 (A) (A) (A) (A) (A) (A) (A) (A) (A) (A) (A) (A)
                 (A) (A) (A) (A) (A) (A) (A) (A) (A) (A) (A) (A)
                 (A) (A) (A) (A) (A) (A) (A) (A) (A) (A) (A) (A)
                 (A) (A) (A) (A) (A) (A) (A) (A) (A) (A) (A) (A)
                 (A) (A) (A) (A) (A) (A) (A) (A) (A) (A) (A) (A)
                 (A) (A) (A) (A) (A) (A) (A) (A) (A) (A) (A) (A)
                 (A) (A) (A) (A) (A) (A) (A) (A) (A) (A) (A) (A)
                 (A) (A) (A) (A) (A) (A) (A) (A) (A) (A) (A) (A)
                 (A) (A) (A) (A) (A) (A) (A) (A) (A) (A) (A) (A)
                 (A) (A) (A) (A) (A) (A) (A) (A) (A) (A) (A) (A)
                 (A) (A) (A) (A) (A) (A) (A) (A) (A) (A) (A) (A)
                 (A) (A) (A) (A) (A) (A) (A) (A) (A) (A) (A) (A)
 The electronic state is 1-A.
 Alpha  occ. eigenvalues --  -20.51828 -15.64304 -15.60360 -15.58994 -15.57621
 Alpha  occ. eigenvalues --  -11.35285 -11.28759 -11.28740 -11.28481 -11.28016
 Alpha  occ. eigenvalues --  -11.27959 -11.27806 -11.25652 -11.25280 -11.25204
 Alpha  occ. eigenvalues --  -11.24930 -11.24451 -11.24190 -11.24025 -11.23923
 Alpha  occ. eigenvalues --  -11.23886 -11.23160 -11.23042 -11.22754 -11.22731
 Alpha  occ. eigenvalues --  -11.22512 -11.22136 -11.21405  -1.37131  -1.36803
 Alpha  occ. eigenvalues --   -1.26258  -1.23931  -1.15113  -1.12922  -1.12536
 Alpha  occ. eigenvalues --   -1.08094  -1.07720  -1.03481  -1.01944  -1.00471
 Alpha  occ. eigenvalues --   -1.00074  -0.98896  -0.97861  -0.95217  -0.88764
 Alpha  occ. eigenvalues --   -0.87721  -0.85682  -0.84461  -0.82818  -0.80846
 Alpha  occ. eigenvalues --   -0.79881  -0.78206  -0.76626  -0.74934  -0.71890
 Alpha  occ. eigenvalues --   -0.71234  -0.68022  -0.67571  -0.67047  -0.65870
 Alpha  occ. eigenvalues --   -0.65649  -0.64162  -0.62861  -0.62120  -0.61373
 Alpha  occ. eigenvalues --   -0.60722  -0.60610  -0.59787  -0.58848  -0.58432
 Alpha  occ. eigenvalues --   -0.58420  -0.57905  -0.57179  -0.56605  -0.56186
 Alpha  occ. eigenvalues --   -0.55509  -0.55008  -0.54138  -0.53207  -0.52797
 Alpha  occ. eigenvalues --   -0.52487  -0.51386  -0.51119  -0.50585  -0.50462
 Alpha  occ. eigenvalues --   -0.49518  -0.48683  -0.48633  -0.47884  -0.46944
 Alpha  occ. eigenvalues --   -0.45098  -0.42264  -0.41826  -0.40593  -0.36340
 Alpha  occ. eigenvalues --   -0.34990  -0.33678  -0.32685  -0.28285  -0.27941
 Alpha virt. eigenvalues --    0.10907   0.12831   0.14212   0.16294   0.17304
 Alpha virt. eigenvalues --    0.19700   0.22366   0.22785   0.23190   0.23656
 Alpha virt. eigenvalues --    0.24255   0.25229   0.25684   0.26367   0.26945
 Alpha virt. eigenvalues --    0.27672   0.28626   0.29314   0.29423   0.30047
 Alpha virt. eigenvalues --    0.30408   0.30968   0.31394   0.31661   0.32226
 Alpha virt. eigenvalues --    0.32358   0.32616   0.33300   0.33792   0.34563
 Alpha virt. eigenvalues --    0.35799   0.35838   0.36328   0.36791   0.36966
 Alpha virt. eigenvalues --    0.37685   0.38243   0.39452   0.39764   0.39965
 Alpha virt. eigenvalues --    0.41048   0.41474   0.42798   0.44109   0.44389
 Alpha virt. eigenvalues --    0.45461   0.46723   0.46897   0.47352   0.48705
 Alpha virt. eigenvalues --    0.49630   0.51204   0.53105   0.53702   0.54364
 Alpha virt. eigenvalues --    0.55453   0.56509   0.57268   0.60172   0.63044
 Alpha virt. eigenvalues --    0.64299   0.65878   0.66500   0.69856   0.69956
 Alpha virt. eigenvalues --    0.70305   0.72167   0.72772   0.73069   0.73380
 Alpha virt. eigenvalues --    0.74259   0.74497   0.74854   0.75422   0.75901
 Alpha virt. eigenvalues --    0.76316   0.76643   0.76975   0.77904   0.78877
 Alpha virt. eigenvalues --    0.79011   0.79391   0.79868   0.80767   0.81142
 Alpha virt. eigenvalues --    0.81393   0.81884   0.82087   0.82702   0.83167
 Alpha virt. eigenvalues --    0.83861   0.84189   0.84498   0.84739   0.85947
 Alpha virt. eigenvalues --    0.86569   0.87500   0.88240   0.89333   0.89469
 Alpha virt. eigenvalues --    0.90258   0.90811   0.91487   0.92256   0.93166
 Alpha virt. eigenvalues --    0.94089   0.95100   0.95479   0.95653   0.97266
 Alpha virt. eigenvalues --    0.98427   0.99535   1.00083   1.01593   1.03172
 Alpha virt. eigenvalues --    1.03375   1.04329   1.05466   1.05712   1.05880
 Alpha virt. eigenvalues --    1.07410   1.07670   1.08741   1.09344   1.10555
 Alpha virt. eigenvalues --    1.10963   1.11502   1.11648   1.11992   1.12298
 Alpha virt. eigenvalues --    1.12600   1.12756   1.13860   1.14067   1.14194
 Alpha virt. eigenvalues --    1.15384   1.15934   1.16293   1.16721   1.16770
 Alpha virt. eigenvalues --    1.17206   1.17881   1.18248   1.18687   1.19034
 Alpha virt. eigenvalues --    1.19321   1.19599   1.19828   1.20669   1.20778
 Alpha virt. eigenvalues --    1.21220   1.21737   1.21975   1.23247   1.23944
 Alpha virt. eigenvalues --    1.24061   1.24412   1.25077   1.25633   1.26282
 Alpha virt. eigenvalues --    1.26993   1.27680   1.28497   1.31053   1.32017
 Alpha virt. eigenvalues --    1.32641   1.34662   1.36426   1.37465   1.37669
 Alpha virt. eigenvalues --    1.39693   1.40756   1.41324   1.42185   1.43218
 Alpha virt. eigenvalues --    1.44747   1.44939   1.47177   1.47880   1.49094
 Alpha virt. eigenvalues --    1.50213   1.50396   1.51495   1.53068   1.54012
 Alpha virt. eigenvalues --    1.57678   1.59275   1.60261   1.62031   1.63238
 Alpha virt. eigenvalues --    1.64022   1.64267   1.65440   1.67523   1.68415
 Alpha virt. eigenvalues --    1.69746   1.69999   1.70843   1.71831   1.72579
 Alpha virt. eigenvalues --    1.73281   1.74440   1.75458   1.76919   1.77205
 Alpha virt. eigenvalues --    1.77523   1.78281   1.78682   1.79575   1.80372
 Alpha virt. eigenvalues --    1.81962   1.82506   1.84858   1.87438   1.89430
 Alpha virt. eigenvalues --    1.91262   1.94367   1.97712   1.98275   1.99056
 Alpha virt. eigenvalues --    2.01383   2.01636   2.04511   2.05274   2.05867
 Alpha virt. eigenvalues --    2.07502   2.08088   2.08830   2.09776   2.10952
 Alpha virt. eigenvalues --    2.11564   2.11716   2.12632   2.13444   2.14440
 Alpha virt. eigenvalues --    2.15645   2.16391   2.16880   2.17226   2.18636
 Alpha virt. eigenvalues --    2.20643   2.21526   2.22824   2.24192   2.24396
 Alpha virt. eigenvalues --    2.24533   2.25820   2.26148   2.27740   2.28125
 Alpha virt. eigenvalues --    2.29641   2.30926   2.31121   2.31928   2.32710
 Alpha virt. eigenvalues --    2.34900   2.36699   2.36798   2.38070   2.39876
 Alpha virt. eigenvalues --    2.40252   2.40444   2.41367   2.42059   2.43788
 Alpha virt. eigenvalues --    2.45013   2.45817   2.46105   2.47635   2.48033
 Alpha virt. eigenvalues --    2.49827   2.50713   2.51334   2.51932   2.53476
 Alpha virt. eigenvalues --    2.54500   2.55865   2.56425   2.57001   2.57932
 Alpha virt. eigenvalues --    2.58927   2.59760   2.60332   2.61091   2.61844
 Alpha virt. eigenvalues --    2.62680   2.63066   2.64146   2.65308   2.67346
 Alpha virt. eigenvalues --    2.67682   2.68069   2.69799   2.70464   2.71287
 Alpha virt. eigenvalues --    2.72075   2.75772   2.77987   2.80694   2.81740
 Alpha virt. eigenvalues --    2.82388   2.83438   2.85983   2.87005   2.87836
 Alpha virt. eigenvalues --    2.89794   2.91888   2.91959   2.93117   2.94515
 Alpha virt. eigenvalues --    2.95534   2.97453   2.97661   2.98308   2.99295
 Alpha virt. eigenvalues --    3.01212   3.02462   3.03952   3.05999   3.07708
 Alpha virt. eigenvalues --    3.08462   3.08886   3.10489   3.12443   3.13091
 Alpha virt. eigenvalues --    3.14510   3.15299   3.17637   3.19652   3.22261
 Alpha virt. eigenvalues --    3.27298   3.27712   3.30748   3.31577   3.34918
 Alpha virt. eigenvalues --    3.38452   3.41788   3.48442   3.52635   3.56315
 Alpha virt. eigenvalues --    3.57705   3.66580   3.76959   3.80871   4.26903
 Alpha virt. eigenvalues --    4.44211   4.44497   4.47790   4.50522   4.51246
 Alpha virt. eigenvalues --    4.54013   4.54478   4.56785   4.59053   4.60498
 Alpha virt. eigenvalues --    4.61483   4.62041   4.65586   4.72260   4.72576
 Alpha virt. eigenvalues --    4.74095   4.76485   4.77995   4.81109   4.81628
 Alpha virt. eigenvalues --    4.87535   4.91775   4.95911   5.01678   5.10348
 Alpha virt. eigenvalues --    5.15216   5.23247
          Condensed to atoms (all electrons):
 Mulliken atomic charges:
              1
     1  C   -0.484589
     2  C   -0.108465
     3  N   -0.427314
     4  C    0.088364
     5  C   -0.168590
     6  C    0.038044
     7  N   -0.296689
     8  C    0.056185
     9  C   -0.227885
    10  C   -0.207035
    11  C    0.292115
    12  N   -0.790565
    13  C    0.073086
    14  C   -0.483410
    15  C   -0.373143
    16  C    0.105249
    17  N   -0.890408
    18  C    0.393604
    19  C   -0.278770
    20  C   -0.176470
    21  C   -0.238152
    22  C   -0.174911
    23  C   -0.281975
    24  C   -0.032408
    25  C   -0.243099
    26  C    0.751124
    27  C   -0.577785
    28  O   -0.627923
    29  H    0.209916
    30  H    0.192859
    31  H    0.162273
    32  H    0.196137
    33  H    0.167729
    34  H    0.176110
    35  H    0.200623
    36  H    0.232852
    37  H    0.224899
    38  H    0.200137
    39  H    0.216094
    40  H    0.156594
    41  H    0.206010
    42  H    0.159712
    43  H    0.191375
    44  H    0.174052
    45  H    0.383350
    46  H    0.191805
    47  H    0.203234
    48  H    0.193800
    49  H    0.205451
    50  H    0.208811
    51  H    0.242613
    52  H    0.190255
    53  H    0.189376
    54  H    0.215745
 Sum of Mulliken charges=   0.00000
 Atomic charges with hydrogens summed into heavy atoms:
              1
     1  C    0.041550
     2  C    0.268269
     3  N   -0.427314
     4  C    0.321216
     5  C   -0.168590
     6  C    0.262944
     7  N   -0.296689
     8  C    0.056185
     9  C   -0.027748
    10  C    0.009059
    11  C    0.292115
    12  N   -0.790565
    13  C    0.283003
    14  C    0.038906
    15  C   -0.007717
    16  C    0.298108
    17  N   -0.507058
    18  C    0.393604
    19  C   -0.086966
    20  C    0.026764
    21  C   -0.044351
    22  C    0.030539
    23  C   -0.073164
    24  C   -0.032408
    25  C   -0.000485
    26  C    0.751124
    27  C    0.017591
    28  O   -0.627923
    29  H    0.000000
    30  H    0.000000
    31  H    0.000000
    32  H    0.000000
    33  H    0.000000
    34  H    0.000000
    35  H    0.000000
    36  H    0.000000
    37  H    0.000000
    38  H    0.000000
    39  H    0.000000
    40  H    0.000000
    41  H    0.000000
    42  H    0.000000
    43  H    0.000000
    44  H    0.000000
    45  H    0.000000
    46  H    0.000000
    47  H    0.000000
    48  H    0.000000
    49  H    0.000000
    50  H    0.000000
    51  H    0.000000
    52  H    0.000000
    53  H    0.000000
    54  H    0.000000
 Sum of Mulliken charges=   0.00000
 Entering OneElI...
 OneElI was handed  5947762 working-precision words.
 Multipole integrals L=0 to 4 MinM= 0 MaxM= 0.
 Requested accuracy = 0.1000D-12
 PrsmSu:  NPrtUS=   1 ThrOK=F
 PRISM was handed     5192161 working-precision words and  8710 shell-pairs
 Electronic moments (au):
  -200.00000000    -1.38235521    -0.50418802    -0.43966274
 -7879.49021573 -4498.72848908  -974.17664880    17.86713707
    -7.27852574    -4.31249836 25427.64374124-17695.17953550
  -245.00592272 -1629.56213003 20688.53034662  3401.72221748
 -2927.33897514     5.95243523 -3219.43158365  2086.15661386
******************************-15589.46408598-62171.67212672
-27617.03181538 14139.62786617-11650.50219604   824.77760207
 -1509.26011093-95068.02289854-40436.58965349-26961.55878947
  -880.63149675 -6169.99401002  8673.50173119
 Electronic spatial extent (au):  <R**2>= 13352.3954
 Nuclear    moments (au):
   200.00000000     0.00000000     0.00000000     0.00000000
  7743.25133245  4381.92989672   855.70604857     0.00000000
     0.00000000     0.00000000-25756.26126991 17648.86021203
   250.40473657  1507.60815159-20706.79865649 -3450.69959081
  2959.85441647    17.60334075  3215.89615782 -2078.74220253
723656.07265624245453.62320382 12268.52335296 64752.17576832
 26817.86038645-14318.13099970 11351.80395847  -788.32595476
  1414.31007320 87357.93890089 35178.03092775 23829.93271755
   948.32316965  6006.36986765 -8732.11670224
 Total      moments (au):
     0.00000000    -1.38235521    -0.50418802    -0.43966274
  -136.23888328  -116.79859235  -118.47060023    17.86713707
    -7.27852574    -4.31249836  -328.61752867   -46.31932347
     5.39881385  -121.95397844   -18.26830987   -48.97737334
    32.51544133    23.55577598    -3.53542583     7.41441134
-29068.45049292-15805.65220527 -3320.94073302  2580.50364160
  -799.17142893  -178.50313353  -298.69823758    36.45164731
   -94.95003773 -7710.08399764 -5258.55872574 -3131.62607193
    67.69167289  -163.62414237   -58.61497105
 Charge=     0.0000 electrons
 Dipole moment (field-independent basis, Debye):
    X=    -3.5136    Y=    -1.2815    Z=    -1.1175  Tot=     3.9034
 Quadrupole moment (field-independent basis, Debye-Ang):
   XX=  -183.2460   YY=  -157.0981   ZZ=  -159.3470
   XY=    24.0319   XZ=    -9.7899   YZ=    -5.8005
 Traceless Quadrupole moment (field-independent basis, Debye-Ang):
   XX=   -16.6823   YY=     9.4656   ZZ=     7.2167
   XY=    24.0319   XZ=    -9.7899   YZ=    -5.8005
 Octapole moment (field-independent basis, Debye-Ang**2):
  XXX=  -233.8973  YYY=   -32.9683  ZZZ=     3.8427  XYY=   -86.8021
  XXY=   -13.0027  XXZ=   -34.8602  XZZ=    23.1432  YZZ=    16.7661
  YYZ=    -2.5164  XYZ=     5.2773
 Hexadecapole moment (field-independent basis, Debye-Ang**3):
 XXXX=-10948.5714 YYYY= -5953.1660 ZZZZ= -1250.8254 XXXY=   971.9413
 XXXZ=  -301.0063 YYYX=   -67.2328 YYYZ=  -112.5041 ZZZX=    13.7294
 ZZZY=   -35.7627 XXYY= -2903.9871 XXZZ= -1980.6252 YYZZ= -1179.5204
 XXYZ=    25.4959 YYXZ=   -61.6287 ZZXY=   -22.0772
 N-N= 2.508264093099D+03 E-N=-7.765392872348D+03  KE= 1.175772813532D+03
 Entering OneElI...
 OneElI was handed  5500372 working-precision words.
 Calculate electrostatic properties
    NBasis =   472  MinDer = 0  MaxDer = 0
    NGrid  =    54  NMatD  =   1
 Requested accuracy = 0.1000D-12
 PrsmSu:  NPrtUS=   1 ThrOK=F
 PRISM was handed     4814580 working-precision words and  7571 shell-pairs
 --------------------------------------------------------
       Center         ----      EFG at Nuclei      ----
                      3XX-RR        3YY-RR        3ZZ-RR
 --------------------------------------------------------
     1   Atom        0.001009      0.048460     -0.049470
     2   Atom       -0.223447      0.085923      0.137524
     3   Atom       -0.239010     -0.485738      0.724748
     4   Atom        0.008317      0.164064     -0.172380
     5   Atom        0.053186      0.071842     -0.125028
     6   Atom        0.063773      0.179185     -0.242957
     7   Atom        0.668229     -0.373356     -0.294874
     8   Atom        0.119643      0.185007     -0.304649
     9   Atom        0.147732      0.118990     -0.266722
    10   Atom        0.178518      0.093526     -0.272044
    11   Atom       -0.114008      0.246710     -0.132702
    12   Atom       -0.546342      0.549248     -0.002906
    13   Atom        0.054985     -0.006173     -0.048812
    14   Atom        0.024146      0.001498     -0.025645
    15   Atom        0.003716      0.006535     -0.010251
    16   Atom        0.027216     -0.127146      0.099930
    17   Atom        0.853794     -0.252418     -0.601376
    18   Atom       -0.251301      0.032433      0.218868
    19   Atom       -0.113046      0.049123      0.063923
    20   Atom       -0.254032      0.050636      0.203396
    21   Atom       -0.160407      0.041926      0.118480
    22   Atom       -0.246911      0.096749      0.150162
    23   Atom       -0.120687      0.059548      0.061140
    24   Atom        0.175129      0.092892     -0.268021
    25   Atom        0.141374      0.140899     -0.282273
    26   Atom        0.305615     -0.376767      0.071152
    27   Atom        0.063795      0.008541     -0.072336
    28   Atom       -0.962912     -0.409154      1.372066
    29   Atom       -0.134672      0.080215      0.054457
    30   Atom        0.038799      0.115111     -0.153910
    31   Atom       -0.224995      0.081111      0.143885
    32   Atom        0.147514     -0.237231      0.089717
    33   Atom        0.031824      0.025809     -0.057633
    34   Atom        0.132721     -0.235098      0.102377
    35   Atom        0.018728      0.029717     -0.048445
    36   Atom        0.140783     -0.306208      0.165426
    37   Atom        0.085533     -0.247372      0.161839
    38   Atom       -0.012515     -0.147434      0.159949
    39   Atom        0.080676     -0.240632      0.159956
    40   Atom        0.030974      0.028800     -0.059774
    41   Atom       -0.002991     -0.093645      0.096636
    42   Atom       -0.126845      0.073581      0.053264
    43   Atom       -0.047018     -0.073747      0.120765
    44   Atom        0.043030      0.114272     -0.157302
    45   Atom        0.215782      0.152168     -0.367950
    46   Atom        0.167253      0.142736     -0.309989
    47   Atom        0.105059     -0.161744      0.056685
    48   Atom        0.074091     -0.081421      0.007330
    49   Atom        0.160266      0.146412     -0.306679
    50   Atom        0.116521     -0.158692      0.042171
    51   Atom        0.070107     -0.222185      0.152079
    52   Atom       -0.080640     -0.030324      0.110964
    53   Atom        0.085055     -0.224184      0.139129
    54   Atom       -0.046459      0.151771     -0.105312
 --------------------------------------------------------
                        XY            XZ            YZ
 --------------------------------------------------------
     1   Atom       -0.005144     -0.033294     -0.008857
     2   Atom       -0.176542      0.029525      0.037516
     3   Atom        0.014350      0.030506      0.166063
     4   Atom        0.159800     -0.028309     -0.049760
     5   Atom        0.003169     -0.004345     -0.026376
     6   Atom       -0.001742     -0.008116     -0.054892
     7   Atom       -0.709492      0.063469      0.021261
     8   Atom        0.011399     -0.017718     -0.108582
     9   Atom       -0.029677     -0.011629     -0.079252
    10   Atom       -0.012232     -0.033082     -0.093904
    11   Atom        0.043993      0.004599     -0.112298
    12   Atom        0.054060      0.030460      0.718862
    13   Atom       -0.089232      0.189655      0.188424
    14   Atom       -0.013154      0.028409     -0.049421
    15   Atom        0.039924      0.022661      0.016659
    16   Atom        0.106431     -0.031412      0.121736
    17   Atom        0.799341      0.228584      0.116541
    18   Atom       -0.164578      0.006386     -0.181005
    19   Atom       -0.122727     -0.042328      0.010918
    20   Atom       -0.218572     -0.078418     -0.020130
    21   Atom       -0.139658     -0.034482     -0.039009
    22   Atom       -0.238865     -0.061958     -0.039883
    23   Atom       -0.117518     -0.043074      0.003545
    24   Atom       -0.016137     -0.002386     -0.135497
    25   Atom       -0.001925     -0.013608     -0.102581
    26   Atom       -0.089221     -0.151355     -0.291266
    27   Atom       -0.017858      0.052577      0.024858
    28   Atom        0.116378     -0.122457     -0.933335
    29   Atom       -0.141799     -0.147039     -0.069585
    30   Atom       -0.046673     -0.182562     -0.087191
    31   Atom       -0.173012      0.037147      0.018869
    32   Atom        0.049640     -0.022566      0.149240
    33   Atom        0.127414      0.152797     -0.164608
    34   Atom        0.030586     -0.014603      0.150158
    35   Atom        0.115614      0.155587     -0.158691
    36   Atom        0.028861     -0.003295      0.062845
    37   Atom       -0.152093      0.022473      0.058078
    38   Atom       -0.215043      0.047843      0.070755
    39   Atom        0.158189     -0.029004      0.068471
    40   Atom       -0.123768      0.167682      0.156312
    41   Atom        0.195575     -0.088109      0.111510
    42   Atom       -0.148128     -0.164323     -0.094315
    43   Atom       -0.203453      0.080117      0.087043
    44   Atom       -0.052900     -0.179945     -0.102036
    45   Atom        0.031895      0.051498      0.097094
    46   Atom        0.009507      0.043421      0.059525
    47   Atom        0.143969     -0.071710      0.172045
    48   Atom        0.159086      0.117418     -0.177978
    49   Atom        0.002622      0.044973      0.056814
    50   Atom        0.142913     -0.068374      0.177908
    51   Atom        0.164202     -0.038528      0.090692
    52   Atom        0.208736      0.094763     -0.075360
    53   Atom       -0.171541     -0.021827     -0.052216
    54   Atom        0.013764     -0.222506      0.021169
 --------------------------------------------------------


 ---------------------------------------------------------------------------------
              Nuclear Quadrupole in Principal Axis System
 ---------------------------------------------------------------------------------

       Atom             a.u.   MegaHertz   Gauss  10(-4) cm-1        Axes

              Baa    -0.0669    -8.979    -3.204    -2.995  0.4438  0.0882  0.8918
     1 C(13)  Bbb     0.0175     2.353     0.840     0.785  0.8943  0.0207 -0.4471
              Bcc     0.0494     6.626     2.364     2.210 -0.0579  0.9959 -0.0697
 
              Baa    -0.3075   -41.268   -14.725   -13.765  0.9048  0.4151 -0.0950
     2 C(13)  Bbb     0.1287    17.272     6.163     5.761  0.2857 -0.4264  0.8582
              Bcc     0.1788    23.996     8.562     8.004 -0.3157  0.8037  0.5044
 
              Baa    -0.5085   -19.611    -6.998    -6.542 -0.0378  0.9905 -0.1324
     3 N(14)  Bbb    -0.2397    -9.244    -3.298    -3.083  0.9988  0.0331 -0.0373
              Bcc     0.7482    28.855    10.296     9.625  0.0326  0.1337  0.9905
 
              Baa    -0.1798   -24.130    -8.610    -8.049  0.0451  0.1225  0.9914
     4 C(13)  Bbb    -0.0915   -12.280    -4.382    -4.096  0.8499 -0.5263  0.0263
              Bcc     0.2713    36.410    12.992    12.145  0.5250  0.8414 -0.1279
 
              Baa    -0.1286   -17.255    -6.157    -5.756  0.0214  0.1301  0.9913
     5 C(13)  Bbb     0.0527     7.067     2.522     2.357  0.9866 -0.1629  0.0001
              Bcc     0.0759    10.188     3.635     3.398  0.1615  0.9780 -0.1319
 
              Baa    -0.2502   -33.574   -11.980   -11.199  0.0263  0.1269  0.9916
     6 C(13)  Bbb     0.0640     8.586     3.064     2.864  0.9996  0.0023 -0.0268
              Bcc     0.1862    24.988     8.916     8.335 -0.0057  0.9919 -0.1268
 
              Baa    -0.7378   -28.456   -10.154    -9.492  0.4518  0.8857 -0.1072
     7 N(14)  Bbb    -0.2914   -11.239    -4.010    -3.749  0.0169  0.1117  0.9936
              Bcc     1.0292    39.695    14.164    13.241  0.8920 -0.4507  0.0355
 
              Baa    -0.3281   -44.034   -15.713   -14.688  0.0334  0.2062  0.9779
     8 C(13)  Bbb     0.1177    15.796     5.636     5.269  0.9862 -0.1653  0.0011
              Bcc     0.2104    28.239    10.076     9.419  0.1619  0.9645 -0.2089
 
              Baa    -0.2831   -37.984   -13.553   -12.670  0.0400  0.1961  0.9798
     9 C(13)  Bbb     0.1138    15.273     5.450     5.095  0.6124  0.7700 -0.1791
              Bcc     0.1692    22.710     8.104     7.575  0.7895 -0.6072  0.0893
 
              Baa    -0.2973   -39.899   -14.237   -13.309  0.0734  0.2351  0.9692
    10 C(13)  Bbb     0.1160    15.563     5.553     5.191  0.0626  0.9688 -0.2398
              Bcc     0.1814    24.336     8.684     8.118  0.9953 -0.0783 -0.0564
 
              Baa    -0.1685   -22.615    -8.070    -7.544 -0.3017  0.2786  0.9118
    11 C(13)  Bbb    -0.1132   -15.194    -5.422    -5.068  0.9477 -0.0164  0.3186
              Bcc     0.2818    37.809    13.491    12.612  0.1037  0.9603 -0.2590
 
              Baa    -0.5493   -21.186    -7.560    -7.067  0.9938 -0.0909  0.0642
    12 N(14)  Bbb    -0.4963   -19.141    -6.830    -6.385 -0.1044 -0.5598  0.8220
              Bcc     1.0456    40.327    14.390    13.452  0.0388  0.8236  0.5658
 
              Baa    -0.3253   -43.655   -15.577   -14.562 -0.4734 -0.5422  0.6942
    13 C(13)  Bbb     0.1099    14.750     5.263     4.920 -0.6099  0.7704  0.1858
              Bcc     0.2154    28.905    10.314     9.642  0.6356  0.3354  0.6954
 
              Baa    -0.0659    -8.844    -3.156    -2.950 -0.1738  0.5600  0.8100
    14 C(13)  Bbb     0.0049     0.659     0.235     0.220  0.7673  0.5926 -0.2451
              Bcc     0.0610     8.185     2.921     2.730  0.6173 -0.5789  0.5327
 
              Baa    -0.0362    -4.855    -1.733    -1.620  0.7536 -0.5971 -0.2750
    15 C(13)  Bbb    -0.0204    -2.741    -0.978    -0.914 -0.0506 -0.4697  0.8814
              Bcc     0.0566     7.597     2.711     2.534  0.6554  0.6503  0.3841
 
              Baa    -0.2277   -30.560   -10.905   -10.194 -0.3971  0.8472 -0.3528
    16 C(13)  Bbb     0.0728     9.775     3.488     3.261  0.9059  0.3002 -0.2988
              Bcc     0.1549    20.784     7.416     6.933  0.1472  0.4383  0.8867
 
              Baa    -0.6716   -25.902    -9.242    -8.640 -0.4720  0.8780  0.0792
    17 N(14)  Bbb    -0.6356   -24.515    -8.748    -8.177 -0.0806 -0.1324  0.9879
              Bcc     1.3072    50.417    17.990    16.817  0.8779  0.4599  0.1332
 
              Baa    -0.3366   -45.162   -16.115   -15.064  0.8770  0.4597  0.1397
    18 C(13)  Bbb    -0.0078    -1.043    -0.372    -0.348 -0.4520  0.6907  0.5644
              Bcc     0.3443    46.205    16.487    15.412  0.1629 -0.5581  0.8136
 
              Baa    -0.1833   -24.594    -8.776    -8.204  0.8792  0.4582  0.1303
    19 C(13)  Bbb     0.0540     7.241     2.584     2.415  0.0968 -0.4397  0.8929
              Bcc     0.1293    17.353     6.192     5.788 -0.4664  0.7725  0.4309
 
              Baa    -0.3788   -50.832   -18.138   -16.956  0.8806  0.4545  0.1343
    20 C(13)  Bbb     0.1587    21.296     7.599     7.104 -0.3983  0.8633 -0.3100
              Bcc     0.2201    29.535    10.539     9.852 -0.2568  0.2195  0.9412
 
              Baa    -0.2383   -31.976   -11.410   -10.666  0.8792  0.4570  0.1349
    21 C(13)  Bbb     0.0993    13.331     4.757     4.447 -0.4427  0.6788  0.5859
              Bcc     0.1389    18.645     6.653     6.219  0.1762 -0.5749  0.7991
 
              Baa    -0.3795   -50.923   -18.171   -16.986  0.8808  0.4533  0.1372
    22 C(13)  Bbb     0.1595    21.397     7.635     7.137 -0.1757  0.0438  0.9835
              Bcc     0.2200    29.526    10.536     9.849 -0.4397  0.8903 -0.1183
 
              Baa    -0.1843   -24.731    -8.825    -8.249  0.8915  0.4274  0.1503
    23 C(13)  Bbb     0.0585     7.856     2.803     2.621  0.0247 -0.3771  0.9259
              Bcc     0.1258    16.875     6.021     5.629 -0.4524  0.8217  0.3467
 
              Baa    -0.3133   -42.047   -15.003   -14.025  0.0151  0.3169  0.9483
    24 C(13)  Bbb     0.1331    17.858     6.372     5.957  0.3262  0.8950 -0.3043
              Bcc     0.1803    24.189     8.631     8.069  0.9452 -0.3139  0.0899
 
              Baa    -0.3062   -41.095   -14.664   -13.708  0.0306  0.2236  0.9742
    25 C(13)  Bbb     0.1417    19.019     6.787     6.344  0.9982 -0.0569 -0.0183
              Bcc     0.1645    22.076     7.877     7.364  0.0514  0.9730 -0.2250
 
              Baa    -0.5459   -73.260   -26.141   -24.437  0.1724  0.8738  0.4547
    26 C(13)  Bbb     0.1617    21.701     7.743     7.239  0.4786 -0.4778  0.7367
              Bcc     0.3842    51.559    18.397    17.198  0.8609  0.0907 -0.5006
 
              Baa    -0.0983   -13.196    -4.709    -4.402 -0.3237 -0.2653  0.9082
    27 C(13)  Bbb     0.0155     2.076     0.741     0.692  0.0356  0.9558  0.2919
              Bcc     0.0829    11.121     3.968     3.709  0.9455 -0.1268  0.3000
 
              Baa    -0.9910    71.705    25.586    23.918  0.9503 -0.3032 -0.0705
    28 O(17)  Bbb    -0.7897    57.144    20.390    19.061  0.3059  0.8676  0.3919
              Bcc     1.7807  -128.849   -45.976   -42.979 -0.0577 -0.3940  0.9173
 
              Baa    -0.2834  -151.225   -53.961   -50.443  0.8083  0.3982  0.4337
    29 H(1)   Bbb     0.1323    70.598    25.191    23.549 -0.3170 -0.3264  0.8905
              Bcc     0.1511    80.627    28.770    26.894 -0.4961  0.8573  0.1376
 
              Baa    -0.2882  -153.758   -54.865   -51.288  0.4992  0.2379  0.8332
    30 H(1)   Bbb     0.1372    73.221    26.127    24.424 -0.4463  0.8948  0.0119
              Bcc     0.1509    80.537    28.737    26.864  0.7427  0.3778 -0.5528
 
              Baa    -0.3068  -163.684   -58.406   -54.599  0.9077  0.4094 -0.0920
    31 H(1)   Bbb     0.1474    78.649    28.064    26.234  0.1502 -0.1124  0.9823
              Bcc     0.1594    85.035    30.342    28.365 -0.3918  0.9054  0.1635
 
              Baa    -0.3017  -160.976   -57.440   -53.696 -0.1203  0.9253 -0.3597
    32 H(1)   Bbb     0.1464    78.100    27.868    26.051  0.3659  0.3782  0.8503
              Bcc     0.1553    82.876    29.572    27.645  0.9228 -0.0293 -0.3841
 
              Baa    -0.3036  -161.998   -57.805   -54.037 -0.5100  0.5341  0.6742
    33 H(1)   Bbb     0.1457    77.715    27.731    25.923  0.7029 -0.1930  0.6846
              Bcc     0.1580    84.283    30.074    28.114  0.4958  0.8231 -0.2770
 
              Baa    -0.2949  -157.347   -56.145   -52.485 -0.0788  0.9315 -0.3550
    34 H(1)   Bbb     0.1351    72.071    25.717    24.040  0.9906  0.1131  0.0771
              Bcc     0.1598    85.276    30.429    28.445 -0.1120  0.3456  0.9317
 
              Baa    -0.2932  -156.436   -55.820   -52.181 -0.5278  0.5193  0.6722
    35 H(1)   Bbb     0.1380    73.634    26.275    24.562  0.8208  0.5153  0.2464
              Bcc     0.1552    82.802    29.546    27.620  0.2184 -0.6818  0.6982
 
              Baa    -0.3163  -168.754   -60.216   -56.290 -0.0634  0.9895 -0.1295
    36 H(1)   Bbb     0.1426    76.096    27.153    25.383  0.9979  0.0609 -0.0236
              Bcc     0.1737    92.659    33.063    30.908  0.0154  0.1308  0.9913
 
              Baa    -0.3145  -167.821   -59.883   -55.979  0.3587  0.9244 -0.1296
    37 H(1)   Bbb     0.1446    77.127    27.521    25.727  0.9324 -0.3615  0.0023
              Bcc     0.1700    90.694    32.362    30.252  0.0447  0.1217  0.9916
 
              Baa    -0.3205  -171.010   -61.021   -57.043  0.5818  0.7943 -0.1749
    38 H(1)   Bbb     0.1450    77.390    27.615    25.815  0.8132 -0.5722  0.1061
              Bcc     0.1755    93.620    33.406    31.228  0.0158  0.2040  0.9788
 
              Baa    -0.3170  -169.153   -60.358   -56.423 -0.3749  0.9142 -0.1540
    39 H(1)   Bbb     0.1455    77.608    27.693    25.887  0.9228  0.3839  0.0329
              Bcc     0.1716    91.545    32.665    30.536 -0.0892  0.1298  0.9875
 
              Baa    -0.3066  -163.591   -58.373   -54.568 -0.5253 -0.5109  0.6804
    40 H(1)   Bbb     0.1467    78.251    27.922    26.102 -0.1308  0.8386  0.5287
              Bcc     0.1599    85.340    30.451    28.466  0.8408 -0.1887  0.5074
 
              Baa    -0.3000  -160.065   -57.115   -53.392 -0.5855  0.7372 -0.3373
    41 H(1)   Bbb     0.1475    78.715    28.087    26.256 -0.2692  0.2157  0.9386
              Bcc     0.1525    81.351    29.028    27.136  0.7647  0.6404  0.0722
 
              Baa    -0.3055  -162.979   -58.155   -54.364  0.7781  0.4202  0.4669
    42 H(1)   Bbb     0.1472    78.523    28.019    26.192  0.6280 -0.5024 -0.5943
              Bcc     0.1583    84.456    30.136    28.171 -0.0152  0.7556 -0.6548
 
              Baa    -0.2977  -158.846   -56.680   -52.985  0.6573  0.7028 -0.2720
    43 H(1)   Bbb     0.1434    76.522    27.305    25.525  0.7442 -0.6623  0.0869
              Bcc     0.1543    82.324    29.375    27.460  0.1191  0.2596  0.9584
 
              Baa    -0.2953  -157.533   -56.212   -52.547  0.4848  0.2699  0.8320
    44 H(1)   Bbb     0.1416    75.567    26.964    25.206 -0.6529  0.7446  0.1388
              Bcc     0.1536    81.966    29.248    27.341  0.5820  0.6105 -0.5372
 
              Baa    -0.3889  -207.473   -74.031   -69.205 -0.0746 -0.1719  0.9823
    45 H(1)   Bbb     0.1470    78.457    27.995    26.170 -0.4874  0.8656  0.1145
              Bcc     0.2418   129.015    46.036    43.035  0.8700  0.4703  0.1484
 
              Baa    -0.3213  -171.416   -61.165   -57.178 -0.0854 -0.1251  0.9885
    46 H(1)   Bbb     0.1425    76.055    27.138    25.369 -0.4651  0.8824  0.0714
              Bcc     0.1787    95.361    34.027    31.809  0.8811  0.4536  0.1335
 
              Baa    -0.3175  -169.377   -60.438   -56.498 -0.3556  0.8214 -0.4459
    47 H(1)   Bbb     0.1491    79.553    28.386    26.536 -0.3117  0.3455  0.8851
              Bcc     0.1684    89.825    32.052    29.962  0.8811  0.4537  0.1332
 
              Baa    -0.3197  -170.574   -60.865   -56.897 -0.4486  0.7075  0.5461
    48 H(1)   Bbb     0.1455    77.658    27.710    25.904  0.1513 -0.5421  0.8266
              Bcc     0.1741    92.915    33.154    30.993  0.8808  0.4534  0.1362
 
              Baa    -0.3178  -169.564   -60.505   -56.561 -0.0923 -0.1204  0.9884
    49 H(1)   Bbb     0.1491    79.576    28.395    26.544 -0.4665  0.8822  0.0639
              Bcc     0.1687    89.988    32.110    30.017  0.8797  0.4552  0.1376
 
              Baa    -0.3197  -170.603   -60.875   -56.907 -0.3405  0.8167 -0.4658
    50 H(1)   Bbb     0.1414    75.465    26.928    25.172 -0.3306  0.3598  0.8725
              Bcc     0.1783    95.138    33.948    31.735  0.8802  0.4511  0.1474
 
              Baa    -0.3166  -168.907   -60.270   -56.341 -0.3998  0.8932 -0.2057
    51 H(1)   Bbb     0.1437    76.647    27.349    25.567  0.9163  0.3953 -0.0646
              Bcc     0.1729    92.260    32.921    30.775 -0.0236  0.2143  0.9765
 
              Baa    -0.3012  -160.706   -57.344   -53.606  0.7206 -0.6336 -0.2815
    52 H(1)   Bbb     0.1431    76.356    27.246    25.470 -0.1251 -0.5182  0.8461
              Bcc     0.1581    84.350    30.098    28.136  0.6820  0.5744  0.4527
 
              Baa    -0.3077  -164.158   -58.576   -54.757  0.4030  0.9066  0.1256
    53 H(1)   Bbb     0.1462    77.998    27.832    26.017 -0.1272 -0.0805  0.9886
              Bcc     0.1615    86.159    30.744    28.740  0.9063 -0.4144  0.0829
 
              Baa    -0.3017  -160.976   -57.440   -53.696  0.6578 -0.0550  0.7512
    54 H(1)   Bbb     0.1466    78.212    27.908    26.089  0.6772  0.4799 -0.5578
              Bcc     0.1551    82.764    29.532    27.607 -0.3298  0.8756  0.3529
 

 ---------------------------------------------------------------------------------

 No NMR shielding tensors so no spin-rotation constants.
 Leave Link  601 at Wed Sep 23 16:31:36 2015, MaxMem=    6291456 cpu:       1.4
 Merz-Kollman atomic radii used.
 Atom Element Radius
    1     6    1.50
    2     6    1.50
    3     7    1.50
    4     6    1.50
    5     6    1.50
    6     6    1.50
    7     7    1.50
    8     6    1.50
    9     6    1.50
   10     6    1.50
   11     6    1.50
   12     7    1.50
   13     6    1.50
   14     6    1.50
   15     6    1.50
   16     6    1.50
   17     7    1.50
   18     6    1.50
   19     6    1.50
   20     6    1.50
   21     6    1.50
   22     6    1.50
   23     6    1.50
   24     6    1.50
   25     6    1.50
   26     6    1.50
   27     6    1.50
   28     8    1.40
   29     1    1.20
   30     1    1.20
   31     1    1.20
   32     1    1.20
   33     1    1.20
   34     1    1.20
   35     1    1.20
   36     1    1.20
   37     1    1.20
   38     1    1.20
   39     1    1.20
   40     1    1.20
   41     1    1.20
   42     1    1.20
   43     1    1.20
   44     1    1.20
   45     1    1.20
   46     1    1.20
   47     1    1.20
   48     1    1.20
   49     1    1.20
   50     1    1.20
   51     1    1.20
   52     1    1.20
   53     1    1.20
   54     1    1.20
 Generate VDW surfaces: Layer= 4 Dens= 6 Start= 1.400 Inc= 0.200

 **********************************************************************

[...]
 **** Fit       0.007571
 **** Fit       0.011031
 **** Fit       0.006857
 **** Fit       0.007409
 **** Fit       0.005112
 **** Fit       0.005379
 **** Fit       0.006043
 **** Fit       0.006577
 **** Fit       0.006853
 **** Fit       0.007096
 **** Fit       0.003635
 **** Fit       0.004608
 **** Fit       0.005482
 **** Fit       0.006094
 **** Fit       0.006387
 **** Fit       0.006392
 **** Fit       0.006232
 **** Fit       0.006133
 **** Fit       0.006479
 **** Fit       0.001723
 **** Fit       0.003059
 **** Fit       0.004250
 **** Fit       0.005192
 **** Fit       0.005828
 **** Fit       0.006137
 **** Fit       0.006131
 **** Fit       0.005858
 **** Fit       0.005399
 **** Fit       0.004882
 **** Fit       0.004503
 **** Fit      -0.000249
 **** Fit       0.001464
 **** Fit       0.002963
 **** Fit       0.004190
 **** Fit       0.005108
 **** Fit       0.005700
 **** Fit       0.005961
 **** Fit       0.005905
 **** Fit       0.005557
 **** Fit       0.004962
 **** Fit       0.004180
 **** Fit       0.003293
 **** Fit      -0.000230
 **** Fit       0.001534
 **** Fit       0.003008
 **** Fit       0.004174
 **** Fit       0.005023
 **** Fit       0.005553
 **** Fit       0.005767
 **** Fit       0.005677
 **** Fit       0.005298
 **** Fit       0.004654
 **** Fit       0.003774
 **** Fit       0.002695
 **** Fit       0.001456
 **** Fit      -0.001719
 **** Fit       0.000340
 **** Fit       0.002054
 **** Fit       0.003424
 **** Fit       0.004448
 **** Fit       0.005132
 **** Fit       0.005480
 **** Fit       0.005503
 **** Fit       0.005211
 **** Fit       0.004620
 **** Fit       0.003746
 **** Fit       0.002606
 **** Fit       0.001220
 **** Fit      -0.000405
 **** Fit      -0.000886
 **** Fit       0.001044
 **** Fit       0.002599
 **** Fit       0.003787
 **** Fit       0.004618
 **** Fit       0.005103
 **** Fit       0.005251
 **** Fit       0.005073
 **** Fit       0.004579
 **** Fit       0.003781
 **** Fit       0.002687
 **** Fit       0.001304
 **** Fit      -0.000368
 **** Fit      -0.001916
 **** Fit       0.000229
 **** Fit       0.001949
 **** Fit       0.003264
 **** Fit       0.004192
 **** Fit       0.004748
 **** Fit       0.004947
 **** Fit       0.004799
 **** Fit       0.004315
 **** Fit       0.003504
 **** Fit       0.002369
 **** Fit       0.000913
 **** Fit      -0.000874
 **** Fit      -0.000053
 **** Fit       0.001805
 **** Fit       0.003177
 **** Fit       0.004092
 **** Fit       0.004575
 **** Fit       0.004645
 **** Fit       0.004319
 **** Fit       0.003607
 **** Fit       0.002513
 **** Fit       0.001038
 **** Fit      -0.000830
 **** Fit       0.002117
 **** Fit       0.003456
 **** Fit       0.004236
 **** Fit       0.004495
 **** Fit       0.004262
 **** Fit       0.003555
 **** Fit       0.002384
 **** Fit       0.000743
 **** Fit       0.004033
 **** Fit       0.004559
 **** Fit       0.004461
 **** Fit       0.003779
 **** Fit       0.002531
 **** Fit       0.003319
 **** Fit      -0.001341
 **** Fit       0.000754
 **** Fit       0.002331
 **** Fit       0.003389
 **** Fit       0.003917
 **** Fit       0.003892
 **** Fit       0.003285
 **** Fit       0.002057
 **** Fit      -0.003822
 **** Fit      -0.001508
 **** Fit       0.000371
 **** Fit       0.001824
 **** Fit       0.002847
 **** Fit       0.003437
 **** Fit       0.003580
 **** Fit       0.003263
 **** Fit       0.002464
 **** Fit       0.001161
 **** Fit      -0.000675
 **** Fit      -0.003205
 **** Fit      -0.001184
 **** Fit       0.000478
 **** Fit       0.001778
 **** Fit       0.002710
 **** Fit       0.003268
 **** Fit       0.003441
 **** Fit       0.003221
 **** Fit       0.002596
 **** Fit       0.001551
 **** Fit       0.000073
 **** Fit      -0.001858
 **** Fit      -0.004199
 **** Fit      -0.002139
 **** Fit      -0.000379
 **** Fit       0.001062
 **** Fit       0.002169
 **** Fit       0.002930
 **** Fit       0.003333
 **** Fit       0.003369
 **** Fit       0.003030
 **** Fit       0.002306
 **** Fit       0.001190
 **** Fit      -0.000325
 **** Fit      -0.002245
 **** Fit      -0.004673
 **** Fit      -0.002710
 **** Fit      -0.000952
 **** Fit       0.000550
 **** Fit       0.001758
 **** Fit       0.002644
 **** Fit       0.003190
 **** Fit       0.003380
 **** Fit       0.003204
 **** Fit       0.002656
 **** Fit       0.001731
 **** Fit       0.000432
 **** Fit      -0.001237
 **** Fit      -0.003261
 **** Fit      -0.002868
 **** Fit      -0.001307
 **** Fit       0.000127
 **** Fit       0.001352
 **** Fit       0.002314
 **** Fit       0.002973
 **** Fit       0.003304
 **** Fit       0.003289
 **** Fit       0.002921
 **** Fit       0.002197
 **** Fit       0.001126
 **** Fit      -0.000274
 **** Fit      -0.001972
 **** Fit      -0.003920
 **** Fit      -0.002229
 **** Fit      -0.001095
 **** Fit       0.000136
 **** Fit       0.001285
 **** Fit       0.002233
 **** Fit       0.002899
 **** Fit       0.003231
 **** Fit       0.003201
 **** Fit       0.002796
 **** Fit       0.002024
 **** Fit       0.000910
 **** Fit      -0.000494
 **** Fit      -0.002106
 **** Fit      -0.000218
 **** Fit       0.000460
 **** Fit       0.001343
 **** Fit       0.002180
 **** Fit       0.002809
 **** Fit       0.003127
 **** Fit       0.003081
 **** Fit       0.002655
 **** Fit       0.001869
 **** Fit       0.000789
 **** Fit      -0.000467
 **** Fit      -0.001704
 **** Fit       0.001474
 **** Fit       0.001755
 **** Fit       0.002321
 **** Fit       0.002820
 **** Fit       0.003041
 **** Fit       0.002879
 **** Fit       0.002328
 **** Fit       0.001483
 **** Fit       0.000551
 **** Fit      -0.000107
 **** Fit       0.002725
 **** Fit       0.002688
 **** Fit       0.002935
 **** Fit       0.002946
 **** Fit       0.002547
 **** Fit       0.001921
 **** Fit       0.001626
 **** Fit       0.003416
 **** Fit       0.003123
 **** Fit       0.002891
 **** Fit       0.002851
 **** Fit       0.003465
 **** Fit      -0.003573
 **** Fit      -0.003539
 **** Fit      -0.003127
 **** Fit       0.000544
 **** Fit      -0.000848
 **** Fit      -0.001911
 **** Fit      -0.002715
 **** Fit      -0.003280
 **** Fit      -0.001507
 **** Fit      -0.001406
 **** Fit      -0.000988
 **** Fit      -0.000248
 **** Fit       0.000785
 **** Fit       0.002001
 **** Fit       0.003166
 **** Fit       0.001526
 **** Fit      -0.000049
 **** Fit      -0.003022
 **** Fit      -0.002696
 **** Fit      -0.001964
 **** Fit      -0.000852
 **** Fit       0.000568
 **** Fit       0.002135
 **** Fit       0.003577
 **** Fit       0.004545
 **** Fit       0.004759
 **** Fit       0.004197
 **** Fit       0.003118
 **** Fit       0.001883
 **** Fit       0.000750
 **** Fit      -0.000173
 **** Fit      -0.000864
 **** Fit      -0.001317
 **** Fit       0.000224
 **** Fit       0.000354
 **** Fit       0.000769
 **** Fit       0.001432
 **** Fit       0.002246
 **** Fit       0.003024
 **** Fit       0.003499
 **** Fit       0.003435
 **** Fit       0.002795
 **** Fit       0.001782
 **** Fit       0.000704
 **** Fit      -0.000181
 **** Fit      -0.000724
 **** Fit      -0.000867
 **** Fit      -0.000602
 **** Fit       0.000044
 **** Fit       0.001006
 **** Fit       0.002150
 **** Fit       0.003251
 **** Fit       0.004029
 **** Fit       0.004260
 **** Fit       0.003908
 **** Fit       0.003155
 **** Fit       0.002262
 **** Fit       0.001437
 **** Fit       0.000792
 **** Fit       0.000377
 **** Fit       0.001630
 **** Fit       0.001753
 **** Fit       0.002112
 **** Fit       0.002626
 **** Fit       0.003144
 **** Fit       0.003456
 **** Fit       0.003387
 **** Fit       0.002915
 **** Fit       0.002203
 **** Fit       0.001497
 **** Fit       0.001005
 **** Fit       0.000845
 **** Fit       0.001054
 **** Fit       0.001600
 **** Fit       0.002377
 **** Fit       0.003202
 **** Fit       0.003833
 **** Fit       0.004068
 **** Fit       0.003859
 **** Fit       0.003333
 **** Fit       0.002702
 **** Fit       0.002142
 **** Fit       0.001766
 **** Fit       0.002709
 **** Fit       0.002811
 **** Fit       0.003098
 **** Fit       0.003422
 **** Fit       0.003583
 **** Fit       0.003436
 **** Fit       0.003017
 **** Fit       0.002529
 **** Fit       0.002208
 **** Fit       0.002202
 **** Fit       0.002531
 **** Fit       0.003087
 **** Fit       0.003656
 **** Fit       0.003991
 **** Fit       0.003959
 **** Fit       0.003627
 **** Fit       0.003192
 **** Fit       0.002847
 **** Fit       0.003459
 **** Fit       0.003533
 **** Fit       0.003701
 **** Fit       0.003711
 **** Fit       0.003466
 **** Fit       0.003175
 **** Fit       0.003135
 **** Fit       0.003427
 **** Fit       0.003835
 **** Fit       0.004028
 **** Fit       0.003887
 **** Fit       0.003609
 **** Fit       0.003879
 **** Fit       0.003886
 **** Fit       0.003786
 **** Fit       0.003721
 **** Fit       0.003947
 **** Fit       0.004001
 **** Fit       0.003967
 **** Fit       0.001186
 **** Fit       0.003733
 **** Fit       0.005860
 **** Fit       0.007403
 **** Fit      -0.004801
 **** Fit      -0.004285
 **** Fit       0.001916
 **** Fit       0.003994
 **** Fit       0.005656
 **** Fit       0.006646
 **** Fit       0.002517
 **** Fit      -0.000021
 **** Fit      -0.001784
 **** Fit      -0.002595
 **** Fit      -0.002722
 **** Fit      -0.002614
 **** Fit       0.001058
 **** Fit       0.002774
 **** Fit       0.004315
 **** Fit       0.005373
 **** Fit       0.005611
 **** Fit       0.004787
 **** Fit       0.003146
 **** Fit       0.001408
 **** Fit       0.000161
 **** Fit      -0.000450
 **** Fit      -0.000581
 **** Fit       0.001832
 **** Fit       0.003065
 **** Fit       0.004169
 **** Fit       0.004820
 **** Fit       0.004665
 **** Fit       0.003735
 **** Fit       0.002553
 **** Fit       0.001695
 **** Fit       0.001420
 **** Fit       0.003566
 **** Fit       0.004017
 **** Fit       0.004458
 **** Fit       0.004227
 **** Fit       0.003520
 **** Fit       0.003109
 **** Fit       0.004522
 **** Fit       0.004316
 **** Fit      -0.008049
 **** Fit      -0.008170
 **** Fit      -0.008612
 **** Fit      -0.008081
 **** Fit      -0.008319
 **** Fit      -0.009807
 **** Fit      -0.008717
 **** Fit      -0.008290
 **** Fit      -0.008769
 **** Fit      -0.009962
 **** Fit      -0.008829
 **** Fit      -0.008702
 **** Fit      -0.009693
 **** Fit      -0.008917
 **** Fit      -0.009314
 **** Fit      -0.010995
 **** Fit      -0.009078
 **** Fit      -0.010803
 **** Fit      -0.009906
 **** Fit       0.007616
 **** Fit      -0.004926
 **** Fit      -0.002765
 **** Fit      -0.000115
 **** Fit       0.002743
 **** Fit       0.006596
 **** Fit       0.005961
 **** Fit      -0.002352
 **** Fit      -0.002986
 **** Fit      -0.002675
 **** Fit      -0.001588
 **** Fit       0.000047
 **** Fit       0.001970
 **** Fit       0.003812
 **** Fit       0.005102
 **** Fit       0.005541
 **** Fit       0.005232
 **** Fit       0.004488
 **** Fit       0.001333
 **** Fit      -0.000815
 **** Fit       0.000108
 **** Fit      -0.000325
 **** Fit      -0.000107
 **** Fit       0.000671
 **** Fit       0.001818
 **** Fit       0.003075
 **** Fit       0.004122
 **** Fit       0.004678
 **** Fit       0.004650
 **** Fit       0.004163
 **** Fit       0.002545
 **** Fit       0.001130
 **** Fit       0.001672
 **** Fit       0.001408
 **** Fit       0.001632
 **** Fit       0.002252
 **** Fit       0.003057
 **** Fit       0.003775
 **** Fit       0.004152
 **** Fit       0.004079
 **** Fit       0.003630
 **** Fit       0.003359
 **** Fit       0.002377
 **** Fit       0.002634
 **** Fit       0.002491
 **** Fit       0.002693
 **** Fit       0.003124
 **** Fit       0.003567
 **** Fit       0.003794
 **** Fit       0.003688
 **** Fit       0.003302
 **** Fit       0.003096
 **** Fit       0.003172
 **** Fit       0.003104
 **** Fit       0.003261
 **** Fit       0.003482
 **** Fit       0.003551
 **** Fit       0.003369
 **** Fit       0.003474
 **** Fit       0.003409
 **** Fit       0.003369
 **** Fit       0.003420
 **** Fit       0.003347
 **** Fit       0.003367
 **** Fit       0.002881
 **** Fit       0.007157
 **** Fit      -0.001411
 **** Fit       0.003030
 **** Fit       0.006707
 **** Fit       0.010015
 **** Fit      -0.003205
 **** Fit       0.001202
 **** Fit       0.004770
 **** Fit       0.007822
 **** Fit       0.010592
 **** Fit       0.013282
 **** Fit      -0.004260
 **** Fit      -0.000129
 **** Fit       0.003237
 **** Fit       0.006073
 **** Fit       0.008541
 **** Fit       0.010764
 **** Fit       0.012832
 **** Fit      -0.006081
 **** Fit      -0.002086
 **** Fit       0.001221
 **** Fit       0.004005
 **** Fit       0.006384
 **** Fit       0.008446
 **** Fit       0.010250
 **** Fit       0.011830
 **** Fit       0.013174
 **** Fit       0.014199
 **** Fit      -0.002333
 **** Fit       0.000707
 **** Fit       0.003314
 **** Fit       0.005548
 **** Fit       0.007457
 **** Fit       0.009076
 **** Fit       0.010414
 **** Fit       0.011448
 **** Fit       0.012102
 **** Fit       0.012221
 **** Fit       0.011559
 **** Fit      -0.000412
 **** Fit       0.002090
 **** Fit       0.004276
 **** Fit       0.006148
 **** Fit       0.007712
 **** Fit       0.008963
 **** Fit       0.009878
 **** Fit       0.010397
 **** Fit       0.010416
 **** Fit       0.009795
 **** Fit       0.008405
 **** Fit      -0.001029
 **** Fit       0.001143
 **** Fit       0.003161
 **** Fit       0.004942
 **** Fit       0.006444
 **** Fit       0.007639
 **** Fit       0.008496
 **** Fit       0.008968
 **** Fit       0.008990
 **** Fit       0.008494
 **** Fit       0.007454
 **** Fit       0.001228
 **** Fit       0.002991
 **** Fit       0.004603
 **** Fit       0.005955
 **** Fit       0.006976
 **** Fit       0.007610
 **** Fit       0.007805
 **** Fit       0.007525
 **** Fit       0.006791
 **** Fit       0.002907
 **** Fit       0.004287
 **** Fit       0.005452
 **** Fit       0.006276
 **** Fit       0.006684
 **** Fit       0.006642
 **** Fit       0.006192
 **** Fit       0.003734
 **** Fit       0.004777
 **** Fit       0.005498
 **** Fit       0.005773
 **** Fit      -0.010049
 **** Fit      -0.014171
 **** Fit      -0.020943
 **** Fit      -0.017543
 **** Fit      -0.002739
 **** Fit      -0.005386
 **** Fit      -0.008221
 **** Fit      -0.011074
 **** Fit      -0.013729
 **** Fit      -0.015949
 **** Fit      -0.017518
 **** Fit      -0.018275
 **** Fit      -0.018158
 **** Fit      -0.017204
 **** Fit      -0.015538
 **** Fit      -0.013332
 **** Fit      -0.010755
 **** Fit      -0.007938
 **** Fit      -0.001174
 **** Fit      -0.003066
 **** Fit      -0.005100
 **** Fit      -0.007163
 **** Fit      -0.009097
 **** Fit      -0.010723
 **** Fit      -0.011877
 **** Fit      -0.012438
 **** Fit      -0.012354
 **** Fit      -0.011648
 **** Fit      -0.010403
 **** Fit      -0.008738
 **** Fit      -0.006773
 **** Fit      -0.004596
 **** Fit      -0.000013
 **** Fit      -0.001369
 **** Fit      -0.002832
 **** Fit      -0.004325
 **** Fit      -0.005734
 **** Fit      -0.006927
 **** Fit      -0.007777
 **** Fit      -0.008189
 **** Fit      -0.008121
 **** Fit      -0.007584
 **** Fit      -0.006637
 **** Fit      -0.005364
 **** Fit      -0.003852
 **** Fit      -0.002172
 **** Fit       0.001272
 **** Fit       0.000279
 **** Fit      -0.000817
 **** Fit      -0.001968
 **** Fit      -0.003083
 **** Fit      -0.004044
 **** Fit      -0.004730
 **** Fit      -0.005048
 **** Fit      -0.004953
 **** Fit      -0.004457
 **** Fit      -0.003613
 **** Fit      -0.002503
 **** Fit      -0.001209
 **** Fit       0.000190
 **** Fit       0.002125
 **** Fit       0.001418
 **** Fit       0.000613
 **** Fit      -0.000263
 **** Fit      -0.001141
 **** Fit      -0.001915
 **** Fit      -0.002469
 **** Fit      -0.002707
 **** Fit      -0.002584
 **** Fit      -0.002112
 **** Fit      -0.001348
 **** Fit      -0.000380
 **** Fit       0.000697
 **** Fit       0.001771
 **** Fit       0.002031
 **** Fit       0.001412
 **** Fit       0.000712
 **** Fit       0.000008
 **** Fit      -0.000580
 **** Fit      -0.000921
 **** Fit      -0.000923
 **** Fit      -0.000571
 **** Fit       0.000073
 **** Fit       0.000897
 **** Fit       0.001759
 **** Fit       0.002683
 **** Fit       0.002353
 **** Fit       0.001848
 **** Fit       0.001235
 **** Fit       0.000661
 **** Fit       0.000335
 **** Fit       0.000418
 **** Fit       0.000904
 **** Fit       0.001615
 **** Fit       0.002287
 **** Fit       0.002703
 **** Fit       0.002396
 **** Fit       0.002167
 **** Fit       0.001623
 **** Fit       0.001245
 **** Fit       0.001499
 **** Fit       0.002109
 **** Fit       0.001903
 -----------------------------------------------------------------
 Leave Link  602 at Thu Sep 24 00:20:24 2015, MaxMem=    6291456 cpu:      14.8

 Test job not archived.
 1\1\GINC-COMPUTE-1-3\FOpt\RHF\6-31G(d)\C23H26N4O1\SHUNZHOU\24-Sep-2015
 \0\\#HF/6-31G* SCF=tight Test Pop=MK iop(6/33=2) iop(6/42=6) opt\\rema
 rk line goes here\\0,1\C,17.3232909306,-4.0451222223,13.3304505762\C,1
 5.9067252245,-3.629006675,13.7086351256\N,15.3205404387,-2.7167451395,
 12.7472114546\C,15.1418300885,-1.3944216023,12.8601538718\C,14.6098570
 245,-0.9433269127,11.6800353464\C,14.514291383,-2.1229382206,10.904225
 8906\N,14.9410778665,-3.1670784666,11.5552293183\C,14.2251135071,0.430
 6700575,11.3076640593\C,13.7566815712,1.333189077,12.2558882658\C,13.4
 163021617,2.6275719648,11.9009381147\C,13.4832166641,3.0246171494,10.5
 767712869\N,13.1501044995,4.3322083491,10.1377488424\C,14.1229473715,5
 .0315945948,9.2755184169\C,15.0552045039,5.920275995,10.0938139641\C,1
 4.9008770223,4.0272953911,8.4017811357\C,14.1326406812,2.7124027661,8.
 2188186038\N,14.8329511891,1.8347946264,7.3060126325\C,14.1665591888,0
 .9855217821,6.4261700359\C,14.8139130355,0.5622811457,5.2625066975\C,1
 4.1934022835,-0.3043783313,4.3856949595\C,12.9115502877,-0.7724945024,
 4.637038923\C,12.2694270089,-0.357865494,5.7890542552\C,12.8825967633,
 0.508324808,6.6815674027\C,13.9608685152,2.1380194941,9.613991191\C,14
 .3400484681,0.8630381774,9.9861888526\C,11.9657861016,4.9695915286,10.
 393016091\C,10.8477044683,4.203941281,11.0727441373\O,11.7945378989,6.
 1136642415,10.0660869762\H,13.5312609599,5.6589734957,8.6283455493\H,1
 3.1509408466,2.9507220451,7.8146877577\H,17.7164487454,-4.7384735536,1
 4.0674273139\H,17.3283745149,-4.531210653,12.362949638\H,17.9807998054
 ,-3.1834696234,13.2857329875\H,15.8953868504,-3.1327593694,14.67093978
 18\H,15.2604662607,-4.4940414344,13.7737368055\H,15.4131091798,-0.8705
 016345,13.7532210297\H,14.1314353593,-2.2293276293,9.9092343416\H,13.6
 55474331,1.0282972995,13.2819442757\H,13.0955565635,3.3219503954,12.65
 52076255\H,15.7651469488,6.425247855,9.4445025659\H,14.4859832837,6.67
 21843252,10.625290444\H,15.6160810408,5.330377637,10.8126441004\H,15.0
 964565492,4.4883402103,7.4379201457\H,15.8624508269,3.7956951797,8.851
 4765333\H,15.6586817743,2.2333503724,6.9187342254\H,15.8084297454,0.91
 71516722,5.0509342841\H,14.7143193521,-0.6130231114,3.4964068396\H,12.
 4295699251,-1.4452272997,3.9514922242\H,11.2773429323,-0.7120974701,6.
 007721518\H,12.3653539334,0.7939720066,7.5778754789\H,14.7458489024,0.
 2059231062,9.2415205166\H,10.8362145916,3.1516281304,10.8266194056\H,1
 0.9286566451,4.3008604579,12.1495765449\H,9.9211639844,4.6678327278,10
 .76590164\\Version=AM64L-G03RevD.02\State=1-A\HF=-1178.7729137\RMSD=1.
 610e-09\RMSF=6.874e-06\Thermal=0.\Dipole=1.0087854,-0.6551676,0.935952
 4\PG=C01 [X(C23H26N4O1)]\\@


 The impersonal hand of government can
 never replace the helping hand of a neighbor.
                        -- Hubert H. Humphrey
 Job cpu time:  0 days  8 hours 12 minutes 40.6 seconds.
 File lengths (MBytes):  RWF=    150 Int=      0 D2E=      0 Chk=     22 Scr=      1
 Normal termination of Gaussian 03 at Thu Sep 24 00:20:24 2015.
