 Entering Gaussian System, Link 0=/share/apps/g03/g03
 Initial command:
 /share/apps//g03/l1.exe /state/partition1/mmpbsa.8/Gau-21617.inp -scrdir=/state/partition1/mmpbsa.8/
 Entering Link 1 = /share/apps//g03/l1.exe PID=     21620.
  
 Copyright (c) 1988,1990,1992,1993,1995,1998,2003,2004, Gaussian, Inc.
                  All Rights Reserved.
  
 This is the Gaussian(R) 03 program.  It is based on the
 the Gaussian(R) 98 system (copyright 1998, Gaussian, Inc.),
 the Gaussian(R) 94 system (copyright 1995, Gaussian, Inc.),
 the Gaussian 92(TM) system (copyright 1992, Gaussian, Inc.),
 the Gaussian 90(TM) system (copyright 1990, Gaussian, Inc.),
 the Gaussian 88(TM) system (copyright 1988, Gaussian, Inc.),
 the Gaussian 86(TM) system (copyright 1986, Carnegie Mellon
 University), and the Gaussian 82(TM) system (copyright 1983,
 Carnegie Mellon University). Gaussian is a federally registered
 trademark of Gaussian, Inc.
  
 This software contains proprietary and confidential information,
 including trade secrets, belonging to Gaussian, Inc.
  
 This software is provided under written license and may be
 used, copied, transmitted, or stored only in accord with that
 written license.
  
 The following legend is applicable only to US Government
 contracts under FAR:
  
                    RESTRICTED RIGHTS LEGEND
  
 Use, reproduction and disclosure by the US Government is
 subject to restrictions as set forth in subparagraphs (a)
 and (c) of the Commercial Computer Software - Restricted
 Rights clause in FAR 52.227-19.
  
 Gaussian, Inc.
 340 Quinnipiac St., Bldg. 40, Wallingford CT 06492
  
  
 ---------------------------------------------------------------
 Warning -- This program may not be used in any manner that
 competes with the business of Gaussian, Inc. or will provide
 assistance to any competitor of Gaussian, Inc.  The licensee
 of this program is prohibited from giving any competitor of
 Gaussian, Inc. access to this program.  By using this program,
 the user acknowledges that Gaussian, Inc. is engaged in the
 business of creating and licensing software in the field of
 computational chemistry and represents and warrants to the
 licensee that it is not a competitor of Gaussian, Inc. and that
 it will not use this program in any manner prohibited above.
 ---------------------------------------------------------------
  

 Cite this work as:
 Gaussian 03, Revision D.02,
 M. J. Frisch, G. W. Trucks, H. B. Schlegel, G. E. Scuseria, 
 M. A. Robb, J. R. Cheeseman, J. A. Montgomery, Jr., T. Vreven, 
 K. N. Kudin, J. C. Burant, J. M. Millam, S. S. Iyengar, J. Tomasi, 
 V. Barone, B. Mennucci, M. Cossi, G. Scalmani, N. Rega, 
 G. A. Petersson, H. Nakatsuji, M. Hada, M. Ehara, K. Toyota, 
 R. Fukuda, J. Hasegawa, M. Ishida, T. Nakajima, Y. Honda, O. Kitao, 
 H. Nakai, M. Klene, X. Li, J. E. Knox, H. P. Hratchian, J. B. Cross, 
 V. Bakken, C. Adamo, J. Jaramillo, R. Gomperts, R. E. Stratmann, 
 O. Yazyev, A. J. Austin, R. Cammi, C. Pomelli, J. W. Ochterski, 
 P. Y. Ayala, K. Morokuma, G. A. Voth, P. Salvador, J. J. Dannenberg, 
 V. G. Zakrzewski, S. Dapprich, A. D. Daniels, M. C. Strain, 
 O. Farkas, D. K. Malick, A. D. Rabuck, K. Raghavachari, 
 J. B. Foresman, J. V. Ortiz, Q. Cui, A. G. Baboul, S. Clifford, 
 J. Cioslowski, B. B. Stefanov, G. Liu, A. Liashenko, P. Piskorz, 
 I. Komaromi, R. L. Martin, D. J. Fox, T. Keith, M. A. Al-Laham, 
 C. Y. Peng, A. Nanayakkara, M. Challacombe, P. M. W. Gill, 
 B. Johnson, W. Chen, M. W. Wong, C. Gonzalez, and J. A. Pople, 
 Gaussian, Inc., Wallingford CT, 2004.
 
 ******************************************
 Gaussian 03:  AM64L-G03RevD.02  1-Mar-2006
                 8-Jun-2016 
 ******************************************
 %chk=molecule
 ------------------------------------------------------------
 #HF/6-31G* SCF=tight Test Pop=MK iop(6/33=2) iop(6/42=6) opt
 ------------------------------------------------------------
 1/18=20,38=1/1,3;
 2/9=110,17=6,18=5,40=1/2;
 3/5=1,6=6,7=1,11=9,16=1,25=1,30=1/1,2,3;
 4//1;
 5/5=2,32=2,38=5/2;
 6/7=2,8=2,9=2,10=2,15=8,20=1,28=1,33=2,42=6/1,2;
 7//1,2,3,16;
 1/18=20/3(3);
 2/9=110/2;
 6/7=2,8=2,9=2,10=2,15=8,19=2,20=1,28=1,33=2,42=6/1,2;
 99//99;
 2/9=110/2;
 3/5=1,6=6,7=1,11=9,16=1,25=1,30=1/1,2,3;
 4/5=5,16=3/1;
 5/5=2,32=2,38=5/2;
 7//1,2,3,16;
 1/18=20/3(-5);
 2/9=110/2;
 6/7=2,8=2,9=2,10=2,15=8,19=2,20=1,28=1,33=2,42=6/1,2;
 99/9=1/99;
 ---------------------
 remark line goes here
 ---------------------
 Symbolic Z-matrix:
 Charge =  0 Multiplicity = 1
 C                     0.669     9.701    -10.017 
 C                     3.832     7.58     -13.191 
 C                     1.944     10.284   -10.251 
 C                     2.881     10.349   -9.24 
 C                     1.882     9.495    -13.859 
 C                     2.525     9.836    -7.975 
 C                     1.26      9.266    -7.726 
 C                     2.308     10.78    -11.665 
 C                     2.552     9.59     -12.61 
 C                     2.223     8.453    -14.787 
 C                     3.222     7.508    -14.423 
 C                     0.364     9.194    -8.754 
 O                     1.234     11.608   -12.131 
 C                     3.53      8.613    -12.281 
 O                     3.416     9.884    -7. 
 C                    -0.943     8.602    -8.506 
 C                    -2.118     9.181    -8.831 
 C                    -2.379     10.572   -9.29 
 O                    -3.195     8.302    -8.586 
 N                    -2.554     7.101    -8.023 
 C                    -1.191     7.304    -7.966 
 C                    -0.142     6.374    -7.41 
 H                     0.592     6.138    -8.194 
 H                     0.367     6.859    -6.564 
 H                    -0.621     5.445    -7.065 
 H                    -2.044     11.282   -8.519 
 H                    -1.83      10.759   -10.225 
 H                    -3.457     10.704   -9.466 
 H                     3.042     9.507    -6.212 
 H                     4.045     8.663    -11.328 
 H                     1.108     12.332   -11.529 
 H                     3.504     6.727    -15.12 
 H                     1.728     8.387    -15.749 
 H                     3.229     11.38    -11.612 
 H                     1.005     8.894    -6.74 
 H                     1.109     10.212   -14.113 
 H                     3.86      10.781   -9.413 
 H                     4.559     6.825    -12.915 
 H                    -0.062     9.65     -10.816 
 

 GradGradGradGradGradGradGradGradGradGradGradGradGradGradGradGradGradGrad
 Berny optimization.
 Initialization pass.
                           ----------------------------
                           !    Initial Parameters    !
                           ! (Angstroms and Degrees)  !
 --------------------------                            --------------------------
 ! Name  Definition              Value          Derivative Info.                !
 --------------------------------------------------------------------------------
 ! R1    R(1,3)                  1.4214         estimate D2E/DX2                !
 ! R2    R(1,12)                 1.3947         estimate D2E/DX2                !
 ! R3    R(1,39)                 1.0841         estimate D2E/DX2                !
 ! R4    R(2,11)                 1.3766         estimate D2E/DX2                !
 ! R5    R(2,14)                 1.4094         estimate D2E/DX2                !
 ! R6    R(2,38)                 1.0838         estimate D2E/DX2                !
 ! R7    R(3,4)                  1.38           estimate D2E/DX2                !
 ! R8    R(3,8)                  1.542          estimate D2E/DX2                !
 ! R9    R(4,6)                  1.4107         estimate D2E/DX2                !
 ! R10   R(4,37)                 1.084          estimate D2E/DX2                !
 ! R11   R(5,9)                  1.4205         estimate D2E/DX2                !
 ! R12   R(5,10)                 1.4364         estimate D2E/DX2                !
 ! R13   R(5,36)                 1.0845         estimate D2E/DX2                !
 ! R14   R(6,7)                  1.4097         estimate D2E/DX2                !
 ! R15   R(6,15)                 1.3217         estimate D2E/DX2                !
 ! R16   R(7,12)                 1.3656         estimate D2E/DX2                !
 ! R17   R(7,35)                 1.0843         estimate D2E/DX2                !
 ! R18   R(8,9)                  1.539          estimate D2E/DX2                !
 ! R19   R(8,13)                 1.434          estimate D2E/DX2                !
 ! R20   R(8,34)                 1.1005         estimate D2E/DX2                !
 ! R21   R(9,14)                 1.421          estimate D2E/DX2                !
 ! R22   R(10,11)                1.4225         estimate D2E/DX2                !
 ! R23   R(10,33)                1.0839         estimate D2E/DX2                !
 ! R24   R(11,32)                1.0841         estimate D2E/DX2                !
 ! R25   R(12,16)                1.4561         estimate D2E/DX2                !
 ! R26   R(13,31)                0.95           estimate D2E/DX2                !
 ! R27   R(14,30)                1.0844         estimate D2E/DX2                !
 ! R28   R(15,29)                0.9502         estimate D2E/DX2                !
 ! R29   R(16,17)                1.3496         estimate D2E/DX2                !
 ! R30   R(16,21)                1.4276         estimate D2E/DX2                !
 ! R31   R(17,18)                1.4878         estimate D2E/DX2                !
 ! R32   R(17,19)                1.4116         estimate D2E/DX2                !
 ! R33   R(18,26)                1.1003         estimate D2E/DX2                !
 ! R34   R(18,27)                1.1003         estimate D2E/DX2                !
 ! R35   R(18,28)                1.1002         estimate D2E/DX2                !
 ! R36   R(19,20)                1.4732         estimate D2E/DX2                !
 ! R37   R(20,21)                1.3792         estimate D2E/DX2                !
 ! R38   R(21,22)                1.5081         estimate D2E/DX2                !
 ! R39   R(22,23)                1.0996         estimate D2E/DX2                !
 ! R40   R(22,24)                1.1            estimate D2E/DX2                !
 ! R41   R(22,25)                1.1007         estimate D2E/DX2                !
 ! A1    A(3,1,12)             119.6268         estimate D2E/DX2                !
 ! A2    A(3,1,39)             120.1854         estimate D2E/DX2                !
 ! A3    A(12,1,39)            120.1878         estimate D2E/DX2                !
 ! A4    A(11,2,14)            121.414          estimate D2E/DX2                !
 ! A5    A(11,2,38)            119.254          estimate D2E/DX2                !
 ! A6    A(14,2,38)            119.3319         estimate D2E/DX2                !
 ! A7    A(1,3,4)              120.5167         estimate D2E/DX2                !
 ! A8    A(1,3,8)              119.6457         estimate D2E/DX2                !
 ! A9    A(4,3,8)              119.7596         estimate D2E/DX2                !
 ! A10   A(3,4,6)              117.9352         estimate D2E/DX2                !
 ! A11   A(3,4,37)             121.0037         estimate D2E/DX2                !
 ! A12   A(6,4,37)             121.0612         estimate D2E/DX2                !
 ! A13   A(9,5,10)             120.3042         estimate D2E/DX2                !
 ! A14   A(9,5,36)             119.8608         estimate D2E/DX2                !
 ! A15   A(10,5,36)            119.835          estimate D2E/DX2                !
 ! A16   A(4,6,7)              122.1334         estimate D2E/DX2                !
 ! A17   A(4,6,15)             118.5661         estimate D2E/DX2                !
 ! A18   A(7,6,15)             119.2976         estimate D2E/DX2                !
 ! A19   A(6,7,12)             118.4995         estimate D2E/DX2                !
 ! A20   A(6,7,35)             120.6914         estimate D2E/DX2                !
 ! A21   A(12,7,35)            120.809          estimate D2E/DX2                !
 ! A22   A(3,8,9)              110.5945         estimate D2E/DX2                !
 ! A23   A(3,8,13)             107.8739         estimate D2E/DX2                !
 ! A24   A(3,8,34)             109.1935         estimate D2E/DX2                !
 ! A25   A(9,8,13)             111.4489         estimate D2E/DX2                !
 ! A26   A(9,8,34)             108.5695         estimate D2E/DX2                !
 ! A27   A(13,8,34)            109.1266         estimate D2E/DX2                !
 ! A28   A(5,9,8)              121.1181         estimate D2E/DX2                !
 ! A29   A(5,9,14)             118.8292         estimate D2E/DX2                !
 ! A30   A(8,9,14)             119.9051         estimate D2E/DX2                !
 ! A31   A(5,10,11)            118.9024         estimate D2E/DX2                !
 ! A32   A(5,10,33)            120.608          estimate D2E/DX2                !
 ! A33   A(11,10,33)           120.4896         estimate D2E/DX2                !
 ! A34   A(2,11,10)            120.361          estimate D2E/DX2                !
 ! A35   A(2,11,32)            119.8541         estimate D2E/DX2                !
 ! A36   A(10,11,32)           119.7848         estimate D2E/DX2                !
 ! A37   A(1,12,7)             121.2687         estimate D2E/DX2                !
 ! A38   A(1,12,16)            119.8886         estimate D2E/DX2                !
 ! A39   A(7,12,16)            118.8273         estimate D2E/DX2                !
 ! A40   A(8,13,31)            109.4797         estimate D2E/DX2                !
 ! A41   A(2,14,9)             120.1266         estimate D2E/DX2                !
 ! A42   A(2,14,30)            119.9642         estimate D2E/DX2                !
 ! A43   A(9,14,30)            119.9092         estimate D2E/DX2                !
 ! A44   A(6,15,29)            109.3908         estimate D2E/DX2                !
 ! A45   A(12,16,17)           124.4739         estimate D2E/DX2                !
 ! A46   A(12,16,21)           126.1592         estimate D2E/DX2                !
 ! A47   A(17,16,21)           109.2638         estimate D2E/DX2                !
 ! A48   A(16,17,18)           128.9098         estimate D2E/DX2                !
 ! A49   A(16,17,19)           110.8124         estimate D2E/DX2                !
 ! A50   A(18,17,19)           120.1239         estimate D2E/DX2                !
 ! A51   A(17,18,26)           109.4924         estimate D2E/DX2                !
 ! A52   A(17,18,27)           109.4829         estimate D2E/DX2                !
 ! A53   A(17,18,28)           109.475          estimate D2E/DX2                !
 ! A54   A(26,18,27)           109.5033         estimate D2E/DX2                !
 ! A55   A(26,18,28)           109.4494         estimate D2E/DX2                !
 ! A56   A(27,18,28)           109.4243         estimate D2E/DX2                !
 ! A57   A(17,19,20)           104.0049         estimate D2E/DX2                !
 ! A58   A(19,20,21)           109.0141         estimate D2E/DX2                !
 ! A59   A(16,21,20)           106.8506         estimate D2E/DX2                !
 ! A60   A(16,21,22)           125.4025         estimate D2E/DX2                !
 ! A61   A(20,21,22)           127.7243         estimate D2E/DX2                !
 ! A62   A(21,22,23)           109.4993         estimate D2E/DX2                !
 ! A63   A(21,22,24)           109.4816         estimate D2E/DX2                !
 ! A64   A(21,22,25)           109.4711         estimate D2E/DX2                !
 ! A65   A(23,22,24)           109.5179         estimate D2E/DX2                !
 ! A66   A(23,22,25)           109.4404         estimate D2E/DX2                !
 ! A67   A(24,22,25)           109.4169         estimate D2E/DX2                !
 ! D1    D(12,1,3,4)             0.1393         estimate D2E/DX2                !
 ! D2    D(12,1,3,8)           176.9189         estimate D2E/DX2                !
 ! D3    D(39,1,3,4)          -179.812          estimate D2E/DX2                !
 ! D4    D(39,1,3,8)            -3.0324         estimate D2E/DX2                !
 ! D5    D(3,1,12,7)             1.1134         estimate D2E/DX2                !
 ! D6    D(3,1,12,16)          179.6714         estimate D2E/DX2                !
 ! D7    D(39,1,12,7)         -178.9353         estimate D2E/DX2                !
 ! D8    D(39,1,12,16)          -0.3773         estimate D2E/DX2                !
 ! D9    D(14,2,11,10)          -2.6079         estimate D2E/DX2                !
 ! D10   D(14,2,11,32)         177.3989         estimate D2E/DX2                !
 ! D11   D(38,2,11,10)         177.3065         estimate D2E/DX2                !
 ! D12   D(38,2,11,32)          -2.6866         estimate D2E/DX2                !
 ! D13   D(11,2,14,9)            1.6972         estimate D2E/DX2                !
 ! D14   D(11,2,14,30)        -178.2761         estimate D2E/DX2                !
 ! D15   D(38,2,14,9)         -178.2172         estimate D2E/DX2                !
 ! D16   D(38,2,14,30)           1.8095         estimate D2E/DX2                !
 ! D17   D(1,3,4,6)             -0.7534         estimate D2E/DX2                !
 ! D18   D(1,3,4,37)           179.2513         estimate D2E/DX2                !
 ! D19   D(8,3,4,6)           -177.5294         estimate D2E/DX2                !
 ! D20   D(8,3,4,37)             2.4753         estimate D2E/DX2                !
 ! D21   D(1,3,8,9)            -72.2641         estimate D2E/DX2                !
 ! D22   D(1,3,8,13)            49.8513         estimate D2E/DX2                !
 ! D23   D(1,3,8,34)           168.3278         estimate D2E/DX2                !
 ! D24   D(4,3,8,9)            104.5401         estimate D2E/DX2                !
 ! D25   D(4,3,8,13)          -133.3444         estimate D2E/DX2                !
 ! D26   D(4,3,8,34)           -14.8679         estimate D2E/DX2                !
 ! D27   D(3,4,6,7)              0.1884         estimate D2E/DX2                !
 ! D28   D(3,4,6,15)           179.5666         estimate D2E/DX2                !
 ! D29   D(37,4,6,7)          -179.8163         estimate D2E/DX2                !
 ! D30   D(37,4,6,15)           -0.4381         estimate D2E/DX2                !
 ! D31   D(10,5,9,8)           173.5604         estimate D2E/DX2                !
 ! D32   D(10,5,9,14)           -2.0203         estimate D2E/DX2                !
 ! D33   D(36,5,9,8)            -6.4792         estimate D2E/DX2                !
 ! D34   D(36,5,9,14)          177.9401         estimate D2E/DX2                !
 ! D35   D(9,5,10,11)            1.146          estimate D2E/DX2                !
 ! D36   D(9,5,10,33)         -178.8478         estimate D2E/DX2                !
 ! D37   D(36,5,10,11)        -178.8144         estimate D2E/DX2                !
 ! D38   D(36,5,10,33)           1.1918         estimate D2E/DX2                !
 ! D39   D(4,6,7,12)             1.0133         estimate D2E/DX2                !
 ! D40   D(4,6,7,35)          -178.9502         estimate D2E/DX2                !
 ! D41   D(15,6,7,12)         -178.3606         estimate D2E/DX2                !
 ! D42   D(15,6,7,35)            1.676          estimate D2E/DX2                !
 ! D43   D(4,6,15,29)          179.9722         estimate D2E/DX2                !
 ! D44   D(7,6,15,29)           -0.6315         estimate D2E/DX2                !
 ! D45   D(6,7,12,1)            -1.6547         estimate D2E/DX2                !
 ! D46   D(6,7,12,16)          179.7724         estimate D2E/DX2                !
 ! D47   D(35,7,12,1)          178.3087         estimate D2E/DX2                !
 ! D48   D(35,7,12,16)          -0.2642         estimate D2E/DX2                !
 ! D49   D(3,8,9,5)            127.8384         estimate D2E/DX2                !
 ! D50   D(3,8,9,14)           -56.6279         estimate D2E/DX2                !
 ! D51   D(13,8,9,5)             7.8447         estimate D2E/DX2                !
 ! D52   D(13,8,9,14)         -176.6217         estimate D2E/DX2                !
 ! D53   D(34,8,9,5)          -112.3777         estimate D2E/DX2                !
 ! D54   D(34,8,9,14)           63.156          estimate D2E/DX2                !
 ! D55   D(3,8,13,31)           58.4411         estimate D2E/DX2                !
 ! D56   D(9,8,13,31)         -179.972          estimate D2E/DX2                !
 ! D57   D(34,8,13,31)         -60.0782         estimate D2E/DX2                !
 ! D58   D(5,9,14,2)             0.6395         estimate D2E/DX2                !
 ! D59   D(5,9,14,30)         -179.3873         estimate D2E/DX2                !
 ! D60   D(8,9,14,2)          -174.9962         estimate D2E/DX2                !
 ! D61   D(8,9,14,30)            4.9771         estimate D2E/DX2                !
 ! D62   D(5,10,11,2)            1.1719         estimate D2E/DX2                !
 ! D63   D(5,10,11,32)        -178.8349         estimate D2E/DX2                !
 ! D64   D(33,10,11,2)        -178.8343         estimate D2E/DX2                !
 ! D65   D(33,10,11,32)          1.1589         estimate D2E/DX2                !
 ! D66   D(1,12,16,17)         -49.341          estimate D2E/DX2                !
 ! D67   D(1,12,16,21)         126.5677         estimate D2E/DX2                !
 ! D68   D(7,12,16,17)         129.2521         estimate D2E/DX2                !
 ! D69   D(7,12,16,21)         -54.8392         estimate D2E/DX2                !
 ! D70   D(12,16,17,18)        -10.5156         estimate D2E/DX2                !
 ! D71   D(12,16,17,19)        174.0625         estimate D2E/DX2                !
 ! D72   D(21,16,17,18)        172.9827         estimate D2E/DX2                !
 ! D73   D(21,16,17,19)         -2.4391         estimate D2E/DX2                !
 ! D74   D(12,16,21,20)       -174.2447         estimate D2E/DX2                !
 ! D75   D(12,16,21,22)          7.3737         estimate D2E/DX2                !
 ! D76   D(17,16,21,20)          2.1832         estimate D2E/DX2                !
 ! D77   D(17,16,21,22)       -176.1984         estimate D2E/DX2                !
 ! D78   D(16,17,18,26)        -60.0193         estimate D2E/DX2                !
 ! D79   D(16,17,18,27)         60.0402         estimate D2E/DX2                !
 ! D80   D(16,17,18,28)        179.9922         estimate D2E/DX2                !
 ! D81   D(19,17,18,26)        115.0321         estimate D2E/DX2                !
 ! D82   D(19,17,18,27)       -124.9084         estimate D2E/DX2                !
 ! D83   D(19,17,18,28)         -4.9564         estimate D2E/DX2                !
 ! D84   D(16,17,19,20)          1.6716         estimate D2E/DX2                !
 ! D85   D(18,17,19,20)       -174.2106         estimate D2E/DX2                !
 ! D86   D(17,19,20,21)         -0.2754         estimate D2E/DX2                !
 ! D87   D(19,20,21,16)         -1.1119         estimate D2E/DX2                !
 ! D88   D(19,20,21,22)        177.2203         estimate D2E/DX2                !
 ! D89   D(16,21,22,23)        -60.0243         estimate D2E/DX2                !
 ! D90   D(16,21,22,24)         60.0565         estimate D2E/DX2                !
 ! D91   D(16,21,22,25)        179.9963         estimate D2E/DX2                !
 ! D92   D(20,21,22,23)        121.934          estimate D2E/DX2                !
 ! D93   D(20,21,22,24)       -117.9851         estimate D2E/DX2                !
 ! D94   D(20,21,22,25)          1.9547         estimate D2E/DX2                !
 --------------------------------------------------------------------------------
 Trust Radius=3.00D-01 FncErr=1.00D-07 GrdErr=1.00D-07
 Number of steps in this run= 212 maximum allowed number of steps= 234.
 GradGradGradGradGradGradGradGradGradGradGradGradGradGradGradGradGradGrad

                          Input orientation:                          
 ---------------------------------------------------------------------
 Center     Atomic     Atomic              Coordinates (Angstroms)
 Number     Number      Type              X           Y           Z
 ---------------------------------------------------------------------
    1          6             0        0.669000    9.701000  -10.017000
    2          6             0        3.832000    7.580000  -13.191000
    3          6             0        1.944000   10.284000  -10.251000
    4          6             0        2.881000   10.349000   -9.240000
    5          6             0        1.882000    9.495000  -13.859000
    6          6             0        2.525000    9.836000   -7.975000
    7          6             0        1.260000    9.266000   -7.726000
    8          6             0        2.308000   10.780000  -11.665000
    9          6             0        2.552000    9.590000  -12.610000
   10          6             0        2.223000    8.453000  -14.787000
   11          6             0        3.222000    7.508000  -14.423000
   12          6             0        0.364000    9.194000   -8.754000
   13          8             0        1.234000   11.608000  -12.131000
   14          6             0        3.530000    8.613000  -12.281000
   15          8             0        3.416000    9.884000   -7.000000
   16          6             0       -0.943000    8.602000   -8.506000
   17          6             0       -2.118000    9.181000   -8.831000
   18          6             0       -2.379000   10.572000   -9.290000
   19          8             0       -3.195000    8.302000   -8.586000
   20          7             0       -2.554000    7.101000   -8.023000
   21          6             0       -1.191000    7.304000   -7.966000
   22          6             0       -0.142000    6.374000   -7.410000
   23          1             0        0.592000    6.138000   -8.194000
   24          1             0        0.367000    6.859000   -6.564000
   25          1             0       -0.621000    5.445000   -7.065000
   26          1             0       -2.044000   11.282000   -8.519000
   27          1             0       -1.830000   10.759000  -10.225000
   28          1             0       -3.457000   10.704000   -9.466000
   29          1             0        3.042000    9.507000   -6.212000
   30          1             0        4.045000    8.663000  -11.328000
   31          1             0        1.108000   12.332000  -11.529000
   32          1             0        3.504000    6.727000  -15.120000
   33          1             0        1.728000    8.387000  -15.749000
   34          1             0        3.229000   11.380000  -11.612000
   35          1             0        1.005000    8.894000   -6.740000
   36          1             0        1.109000   10.212000  -14.113000
   37          1             0        3.860000   10.781000   -9.413000
   38          1             0        4.559000    6.825000  -12.915000
   39          1             0       -0.062000    9.650000  -10.816000
 ---------------------------------------------------------------------
                    Distance matrix (angstroms):
                    1          2          3          4          5
     1  C    0.000000
     2  C    4.957569   0.000000
     3  C    1.421362   4.418117   0.000000
     4  C    2.432401   4.917536   1.379969   0.000000
     5  C    4.034200   2.813530   3.693782   4.802341   0.000000
     6  C    2.762739   5.831333   2.391326   1.410720   5.928844
     7  C    2.405657   6.270886   2.807099   2.468345   6.168713
     8  C    2.562512   3.858919   1.542047   2.528777   2.578049
     9  C    3.206503   2.452766   2.533018   3.470046   1.420537
    10  C    5.169654   2.428626   4.899561   5.898897   1.436394
    11  C    5.544357   1.376629   5.171561   5.920393   2.462085
    12  C    1.394720   5.858241   2.434237   2.811674   5.334412
    13  O    2.902563   4.908970   2.406549   3.557467   2.805469
    14  C    3.807199   1.409395   3.070592   3.561261   2.446204
    15  O    4.084334   6.618909   3.591070   2.349479   7.039202
    16  C    2.467684   6.767151   3.769472   4.267756   6.118225
    17  C    3.073169   7.548199   4.442168   5.149903   6.432681
    18  C    3.252303   7.921262   4.437882   5.264962   6.339701
    19  O    4.351489   8.432440   5.754118   6.444820   7.416448
    20  N    4.596060   8.229135   5.943692   6.447466   7.711565
    21  C    3.662214   7.253091   4.891815   5.241783   6.997947
    22  C    4.303847   7.118081   5.264103   5.318652   7.444919
    23  H    4.003027   6.127558   4.821667   4.905727   6.710125
    24  H    4.482341   7.512869   5.273663   5.065696   7.903211
    25  H    5.337784   7.868628   6.336067   6.406547   8.296140
    26  H    3.479071   8.370171   4.460938   5.064184   6.864579
    27  H    2.721696   7.138728   3.803863   4.830305   5.346269
    28  H    4.281762   8.761537   5.473886   6.351956   7.018907
    29  H    4.488518   7.283122   4.257095   3.147010   7.734491
    30  H    3.767432   2.165416   2.863873   2.925275   3.431728
    31  H    3.066109   5.723978   2.554698   3.509322   3.751872
    32  H    6.551527   2.134534   6.228403   6.934076   3.447148
    33  H    5.975274   3.409022   5.820075   6.895356   2.196242
    34  H    3.452052   4.158948   2.169046   2.609684   3.227482
    35  H    3.391589   7.164770   3.891136   3.447666   7.197950
    36  H    4.151137   3.897722   3.951892   5.186992   1.084497
    37  H    3.422528   4.951815   2.149490   1.083971   5.033209
    38  H    5.639316   1.083850   5.089185   5.360959   3.896969
    39  H    1.084142   5.008868   2.178352   3.410810   3.614279
                    6          7          8          9         10
     6  C    0.000000
     7  C    1.409655   0.000000
     8  C    3.815013   4.348128   0.000000
     9  C    4.641602   5.062380   1.539045   0.000000
    10  C    6.957531   7.172591   3.894745   2.477971   0.000000
    11  C    6.890725   7.196514   4.375836   2.840879   1.422506
    12  C    2.385147   1.365571   3.842974   4.451168   6.356261
    13  O    4.698830   4.988954   1.433951   2.457415   4.241047
    14  C    4.587743   5.131017   2.562934   1.421005   2.830881
    15  O    1.321669   2.357400   4.877777   5.683752   8.006771
    16  C    3.719105   2.429507   5.029112   5.480327   7.035390
    17  C    4.766467   3.555156   5.493435   6.021380   7.405957
    18  C    5.130315   4.170618   5.258503   6.025071   7.475665
    19  O    5.953560   4.638526   6.775229   7.132989   8.235893
    20  N    5.768775   4.395683   7.101989   7.301159   8.390431
    21  C    4.496639   3.148721   6.165077   6.387690   7.713730
    22  C    4.406536   3.229415   6.596996   6.681339   8.020947
    23  H    4.178475   3.232589   6.044887   5.937926   7.175447
    24  H    3.938326   2.818039   6.720262   6.984748   8.579237
    25  H    5.477800   4.309887   7.628975   7.615509   8.761603
    26  H    4.823133   3.950889   5.393443   6.381407   8.093105
    27  H    4.988031   4.245250   4.381448   5.124130   6.523518
    28  H    6.225820   5.229296   6.170624   6.872686   8.102002
    29  H    1.866467   2.350702   5.647521   6.417273   8.678266
    30  H    3.863798   4.592846   2.759063   2.175294   3.915158
    31  H    4.568240   4.887358   1.966520   3.282112   5.186948
    32  H    7.853365   8.133467   5.458411   3.924688   2.175069
    33  H    7.947949   8.084565   4.768847   3.461142   1.083893
    34  H    4.013393   4.842205   1.100477   2.158340   4.433959
    35  H    2.173244   1.084253   5.432350   6.110198   8.150596
    36  H    6.310426   6.458443   2.784408   2.174429   2.188459
    37  H    2.177865   3.449811   2.734997   3.653786   6.081055
    38  H    6.132445   6.615709   4.719272   3.430204   3.407589
    39  H    3.846875   3.382786   2.759457   3.170967   4.735280
                   11         12         13         14         15
    11  C    0.000000
    12  C    6.568738   0.000000
    13  O    5.100530   4.241276   0.000000
    14  C    2.429826   4.775023   3.776790   0.000000
    15  O    7.796406   3.587105   5.836134   5.432992   0.000000
    16  C    7.318125   1.456096   5.188062   5.853074   4.786694
    17  C    7.911068   2.483228   5.293036   6.642667   5.871280
    18  C    8.191885   3.116124   4.711512   6.906522   6.268929
    19  O    8.710849   3.672924   6.566026   7.679542   6.980218
    20  N    8.630633   3.664660   7.178973   7.578375   6.665772
    21  C    7.823620   2.571200   6.461599   6.528441   5.367868
    22  C    7.860319   3.164612   7.181641   6.497949   5.014735
    23  H    6.898858   3.115240   6.770010   5.609014   4.840778
    24  H    8.386662   3.201302   7.368594   6.764996   4.317073
    25  H    8.553641   4.228232   8.190723   7.380629   6.000526
    26  H    8.765332   3.195846   4.888569   7.235032   5.837240
    27  H    7.329046   3.070293   3.706984   6.128789   6.219869
    28  H    8.910404   4.169782   5.470368   7.817588   7.347903
    29  H    8.452746   3.705593   6.535872   6.153872   0.950236
    30  H    3.404465   4.522963   4.149645   1.084405   4.540712
    31  H    6.009593   4.254551   0.949977   4.501394   5.641933
    32  H    1.084110   7.514762   6.157206   3.408459   8.712565
    33  H    2.182419   7.172292   4.869168   3.914755   9.035228
    34  H    4.784784   4.599455   2.073974   2.862595   4.852167
    35  H    8.115699   2.134731   6.039960   6.095676   2.619279
    36  H    3.445647   5.505473   2.427502   3.431365   7.484958
    37  H    6.018278   3.895493   3.868763   3.610339   2.612339
    38  H    2.127938   6.365855   5.877701   2.158180   6.756564
    39  H    5.327595   2.154357   2.691209   4.015477   5.168471
                   16         17         18         19         20
    16  C    0.000000
    17  C    1.349626   0.000000
    18  C    2.560791   1.487845   0.000000
    19  O    2.273302   1.411593   2.512841   0.000000
    20  N    2.254243   2.273623   3.699156   1.473177   0.000000
    21  C    1.427553   2.265101   3.720772   2.323020   1.379212
    22  C    2.608985   3.715248   5.114858   3.797495   2.592690
    23  H    2.919737   4.124284   5.448707   4.379261   3.294530
    24  H    2.919848   4.087322   5.362645   4.342646   3.274063
    25  H    3.485228   4.395163   5.858952   4.135380   2.719667
    26  H    2.897373   2.125328   1.100348   3.195261   4.241094
    27  H    2.897305   2.125150   1.100270   3.253674   4.330582
    28  H    3.414704   2.125012   1.100220   2.571507   3.984880
    29  H    4.686330   5.795778   6.324204   6.781450   6.354823
    30  H    5.731278   6.669775   7.004677   7.750257   7.543850
    31  H    5.220922   5.255005   4.502209   6.589230   7.284617
    32  H    8.187578   8.785245   9.131408   9.489488   9.338450
    33  H    7.722792   7.954928   7.959922   8.692049   8.926388
    34  H    5.896618   6.415604   6.123252   7.739414   8.039518
    35  H    2.645510   3.769321   4.557372   4.625817   4.186576
    36  H    6.183951   6.275031   5.962975   7.260871   7.757834
    37  H    5.351588   6.215723   6.243711   7.523456   7.524221
    38  H    7.271108   8.173868   8.678507   9.002571   8.637280
    39  H    2.685250   2.896087   2.923568   4.075008   4.528611
                   21         22         23         24         25
    21  C    0.000000
    22  C    1.508124   0.000000
    23  H    2.142575   1.099594   0.000000
    24  H    2.142660   1.100010   1.796487   0.000000
    25  H    2.143031   1.100685   1.796179   1.796257   0.000000
    26  H    4.105838   5.379215   5.789202   5.403506   6.181393
    27  H    4.177131   5.477389   5.598633   5.782710   6.299673
    28  H    4.352557   5.827972   6.233838   6.150496   6.439315
    29  H    5.084094   4.624797   4.613132   3.780401   5.535795
    30  H    6.369115   6.174238   5.302904   6.283136   7.092267
    31  H    6.577321   7.350267   7.053660   7.426576   8.387342
    32  H    8.576460   8.535926   7.536321   9.113909   9.140141
    33  H    8.382633   8.779977   7.964077   9.410172   9.464936
    34  H    7.031607   7.353943   6.790807   7.356140   8.409633
    35  H    2.975499   2.848668   3.143282   2.139917   3.826892
    36  H    7.178584   7.824670   7.204119   8.293405   8.682827
    37  H    6.300471   6.280897   5.807171   5.974942   7.352915
    38  H    7.601614   7.253125   6.204587   7.609811   7.934690
    39  H    3.860163   4.726459   4.431337   5.104236   5.662553
                   26         27         28         29         30
    26  H    0.000000
    27  H    1.797154   0.000000
    28  H    1.796514   1.796172   0.000000
    29  H    5.860057   6.434909   7.366025   0.000000
    30  H    7.198997   6.334465   7.994544   5.281269   0.000000
    31  H    4.483046   3.578629   5.267407   6.323881   4.704033
    32  H    9.752001   8.286713   9.810187   9.343142   4.291858
    33  H    8.653433   6.985723   8.469286   9.692026   4.998990
    34  H    6.113982   5.282319   7.054423   5.718662   2.851070
    35  H    4.261899   4.864224   5.533229   2.191785   5.508603
    36  H    6.509927   4.904434   6.533378   8.164516   4.333096
    37  H    5.992283   5.747689   7.317597   3.540989   2.861359
    38  H    9.098861   7.970682   9.549790   7.377305   2.482138
    39  H    3.444990   2.169098   3.802557   5.554465   4.254852
                   31         32         33         34         35
    31  H    0.000000
    32  H    7.074752   0.000000
    33  H    5.809976   2.511059   0.000000
    34  H    2.326335   5.833704   5.322201   0.000000
    35  H    5.896183   9.009178   9.052174   5.904469   0.000000
    36  H    3.342373   4.346872   2.527901   3.480463   7.490599
    37  H    3.802178   7.009387   7.100814   2.364860   4.342433
    38  H    6.645107   2.446355   4.299530   4.920847   7.419050
    39  H    3.011709   6.307511   5.397570   3.802262   4.280631
                   36         37         38         39
    36  H    0.000000
    37  H    5.475560   0.000000
    38  H    4.980911   5.329403   0.000000
    39  H    3.543627   4.316208   5.808620   0.000000
 Stoichiometry    C18H17NO3
 Framework group  C1[X(C18H17NO3)]
 Deg. of freedom   111
 Full point group                 C1
 Largest Abelian subgroup         C1      NOp   1
 Largest concise Abelian subgroup C1      NOp   1
                         Standard orientation:                         
 ---------------------------------------------------------------------
 Center     Atomic     Atomic              Coordinates (Angstroms)
 Number     Number      Type              X           Y           Z
 ---------------------------------------------------------------------
    1          6             0       -0.232661    0.023215   -0.644961
    2          6             0        3.990266   -0.072897    1.950253
    3          6             0        0.794052    0.967744   -0.916983
    4          6             0        0.589598    2.312120   -0.682106
    5          6             0        3.495175   -1.502634   -0.421811
    6          6             0       -0.667803    2.712075   -0.182999
    7          6             0       -1.698782    1.787366    0.079916
    8          6             0        2.171044    0.477295   -1.408165
    9          6             0        2.943044   -0.203352   -0.263876
   10          6             0        4.328249   -2.065734    0.603926
   11          6             0        4.568412   -1.311365    1.785777
   12          6             0       -1.456432    0.461498   -0.139457
   13          8             0        1.952771   -0.423740   -2.502107
   14          6             0        3.194439    0.506128    0.941401
   15          8             0       -0.874212    3.995710    0.054667
   16          6             0       -2.514707   -0.500381    0.134512
   17          6             0       -2.929736   -1.447295   -0.733011
   18          6             0       -2.596576   -1.604617   -2.174517
   19          8             0       -3.871742   -2.305533   -0.125849
   20          7             0       -4.032941   -1.755032    1.231065
   21          6             0       -3.216213   -0.652176    1.368512
   22          6             0       -3.093599    0.262344    2.561430
   23          1             0       -2.051554    0.270085    2.912413
   24          1             0       -3.392400    1.281421    2.274686
   25          1             0       -3.749410   -0.097758    3.368737
   26          1             0       -2.922247   -0.710105   -2.726379
   27          1             0       -1.509509   -1.730881   -2.288261
   28          1             0       -3.111733   -2.490217   -2.575527
   29          1             0       -1.757070    4.117548    0.384312
   30          1             0        2.773294    1.495102    1.084582
   31          1             0        1.475819    0.023978   -3.190962
   32          1             0        5.210251   -1.714544    2.560879
   33          1             0        4.767200   -3.049043    0.480437
   34          1             0        2.756853    1.339016   -1.762164
   35          1             0       -2.662257    2.122410    0.447428
   36          1             0        3.286365   -2.072473   -1.320596
   37          1             0        1.371212    3.037880   -0.875360
   38          1             0        4.149791    0.467344    2.876224
   39          1             0       -0.065169   -1.032044   -0.828640
 ---------------------------------------------------------------------
 Rotational constants (GHZ):      0.3780860      0.1752920      0.1580126
 Standard basis: 6-31G(d) (6D, 7F)
 There are   364 symmetry adapted basis functions of A   symmetry.
 Integral buffers will be    131072 words long.
 Raffenetti 1 integral format.
 Two-electron integral symmetry is turned on.
   364 basis functions,   684 primitive gaussians,   364 cartesian basis functions
    78 alpha electrons       78 beta electrons
       nuclear repulsion energy      1700.8433762295 Hartrees.
 NAtoms=   39 NActive=   39 NUniq=   39 SFac= 7.50D-01 NAtFMM=   80 NAOKFM=F Big=F
 One-electron integrals computed using PRISM.
 NBasis=   364 RedAO= T  NBF=   364
 NBsUse=   364 1.00D-06 NBFU=   364
 Harris functional with IExCor=  205 diagonalized for initial guess.
 ExpMin= 1.61D-01 ExpMax= 5.48D+03 ExpMxC= 8.25D+02 IAcc=1 IRadAn=         1 AccDes= 1.00D-06
 HarFok:  IExCor= 205 AccDes= 1.00D-06 IRadAn=         1 IDoV=1
 ScaDFX=  1.000000  1.000000  1.000000  1.000000
 Initial guess orbital symmetries:
       Occupied  (A) (A) (A) (A) (A) (A) (A) (A) (A) (A) (A) (A)
                 (A) (A) (A) (A) (A) (A) (A) (A) (A) (A) (A) (A)
                 (A) (A) (A) (A) (A) (A) (A) (A) (A) (A) (A) (A)
                 (A) (A) (A) (A) (A) (A) (A) (A) (A) (A) (A) (A)
                 (A) (A) (A) (A) (A) (A) (A) (A) (A) (A) (A) (A)
                 (A) (A) (A) (A) (A) (A) (A) (A) (A) (A) (A) (A)
                 (A) (A) (A) (A) (A) (A)
       Virtual   (A) (A) (A) (A) (A) (A) (A) (A) (A) (A) (A) (A)
                 (A) (A) (A) (A) (A) (A) (A) (A) (A) (A) (A) (A)
                 (A) (A) (A) (A) (A) (A) (A) (A) (A) (A) (A) (A)
                 (A) (A) (A) (A) (A) (A) (A) (A) (A) (A) (A) (A)
                 (A) (A) (A) (A) (A) (A) (A) (A) (A) (A) (A) (A)
                 (A) (A) (A) (A) (A) (A) (A) (A) (A) (A) (A) (A)
                 (A) (A) (A) (A) (A) (A) (A) (A) (A) (A) (A) (A)
                 (A) (A) (A) (A) (A) (A) (A) (A) (A) (A) (A) (A)
                 (A) (A) (A) (A) (A) (A) (A) (A) (A) (A) (A) (A)
                 (A) (A) (A) (A) (A) (A) (A) (A) (A) (A) (A) (A)
                 (A) (A) (A) (A) (A) (A) (A) (A) (A) (A) (A) (A)
                 (A) (A) (A) (A) (A) (A) (A) (A) (A) (A) (A) (A)
                 (A) (A) (A) (A) (A) (A) (A) (A) (A) (A) (A) (A)
                 (A) (A) (A) (A) (A) (A) (A) (A) (A) (A) (A) (A)
                 (A) (A) (A) (A) (A) (A) (A) (A) (A) (A) (A) (A)
                 (A) (A) (A) (A) (A) (A) (A) (A) (A) (A) (A) (A)
                 (A) (A) (A) (A) (A) (A) (A) (A) (A) (A) (A) (A)
                 (A) (A) (A) (A) (A) (A) (A) (A) (A) (A) (A) (A)
                 (A) (A) (A) (A) (A) (A) (A) (A) (A) (A) (A) (A)
                 (A) (A) (A) (A) (A) (A) (A) (A) (A) (A) (A) (A)
                 (A) (A) (A) (A) (A) (A) (A) (A) (A) (A) (A) (A)
                 (A) (A) (A) (A) (A) (A) (A) (A) (A) (A) (A) (A)
                 (A) (A) (A) (A) (A) (A) (A) (A) (A) (A) (A) (A)
                 (A) (A) (A) (A) (A) (A) (A) (A) (A) (A)
 The electronic state of the initial guess is 1-A.
 Requested convergence on RMS density matrix=1.00D-08 within 128 cycles.
 Requested convergence on MAX density matrix=1.00D-06.
 Requested convergence on             energy=1.00D-06.
 No special actions if energy rises.
 Integral accuracy reduced to 1.0D-05 until final iterations.
 Initial convergence to 1.0D-05 achieved.  Increase integral accuracy.
 SCF Done:  E(RHF) =  -970.455467478     A.U. after   17 cycles
             Convg  =    0.4971D-08             -V/T =  2.0027
             S**2   =   0.0000

 **********************************************************************

            Population analysis using the SCF density.

 **********************************************************************

 Orbital symmetries:
 BldTbl:  Degeneracy threshold= 1.00D-02
       Occupied  (A) (A) (A) (A) (A) (A) (A) (A) (A) (A) (A) (A)
                 (A) (A) (A) (A) (A) (A) (A) (A) (A) (A) (A) (A)
                 (A) (A) (A) (A) (A) (A) (A) (A) (A) (A) (A) (A)
                 (A) (A) (A) (A) (A) (A) (A) (A) (A) (A) (A) (A)
                 (A) (A) (A) (A) (A) (A) (A) (A) (A) (A) (A) (A)
                 (A) (A) (A) (A) (A) (A) (A) (A) (A) (A) (A) (A)
                 (A) (A) (A) (A) (A) (A)
       Virtual   (A) (A) (A) (A) (A) (A) (A) (A) (A) (A) (A) (A)
                 (A) (A) (A) (A) (A) (A) (A) (A) (A) (A) (A) (A)
                 (A) (A) (A) (A) (A) (A) (A) (A) (A) (A) (A) (A)
                 (A) (A) (A) (A) (A) (A) (A) (A) (A) (A) (A) (A)
                 (A) (A) (A) (A) (A) (A) (A) (A) (A) (A) (A) (A)
                 (A) (A) (A) (A) (A) (A) (A) (A) (A) (A) (A) (A)
                 (A) (A) (A) (A) (A) (A) (A) (A) (A) (A) (A) (A)
                 (A) (A) (A) (A) (A) (A) (A) (A) (A) (A) (A) (A)
                 (A) (A) (A) (A) (A) (A) (A) (A) (A) (A) (A) (A)
                 (A) (A) (A) (A) (A) (A) (A) (A) (A) (A) (A) (A)
                 (A) (A) (A) (A) (A) (A) (A) (A) (A) (A) (A) (A)
                 (A) (A) (A) (A) (A) (A) (A) (A) (A) (A) (A) (A)
                 (A) (A) (A) (A) (A) (A) (A) (A) (A) (A) (A) (A)
                 (A) (A) (A) (A) (A) (A) (A) (A) (A) (A) (A) (A)
                 (A) (A) (A) (A) (A) (A) (A) (A) (A) (A) (A) (A)
                 (A) (A) (A) (A) (A) (A) (A) (A) (A) (A) (A) (A)
                 (A) (A) (A) (A) (A) (A) (A) (A) (A) (A) (A) (A)
                 (A) (A) (A) (A) (A) (A) (A) (A) (A) (A) (A) (A)
                 (A) (A) (A) (A) (A) (A) (A) (A) (A) (A) (A) (A)
                 (A) (A) (A) (A) (A) (A) (A) (A) (A) (A) (A) (A)
                 (A) (A) (A) (A) (A) (A) (A) (A) (A) (A) (A) (A)
                 (A) (A) (A) (A) (A) (A) (A) (A) (A) (A) (A) (A)
                 (A) (A) (A) (A) (A) (A) (A) (A) (A) (A) (A) (A)
                 (A) (A) (A) (A) (A) (A) (A) (A) (A) (A)
 The electronic state is 1-A.
 Alpha  occ. eigenvalues --  -20.63919 -20.60873 -20.57366 -15.62113 -11.32069
 Alpha  occ. eigenvalues --  -11.31711 -11.30959 -11.30025 -11.25871 -11.25806
 Alpha  occ. eigenvalues --  -11.25515 -11.25180 -11.24763 -11.24169 -11.23932
 Alpha  occ. eigenvalues --  -11.23892 -11.23864 -11.23824 -11.23489 -11.23356
 Alpha  occ. eigenvalues --  -11.23264 -11.23189  -1.44046  -1.42539  -1.37279
 Alpha  occ. eigenvalues --   -1.17602  -1.14687  -1.13696  -1.09803  -1.05453
 Alpha  occ. eigenvalues --   -1.02253  -1.00548  -0.99946  -0.98924  -0.96384
 Alpha  occ. eigenvalues --   -0.92427  -0.85175  -0.84724  -0.82165  -0.79143
 Alpha  occ. eigenvalues --   -0.77763  -0.75472  -0.73120  -0.70872  -0.69505
 Alpha  occ. eigenvalues --   -0.68762  -0.67077  -0.65077  -0.63631  -0.63548
 Alpha  occ. eigenvalues --   -0.62497  -0.61319  -0.60589  -0.60284  -0.59656
 Alpha  occ. eigenvalues --   -0.59237  -0.58739  -0.57698  -0.57437  -0.56956
 Alpha  occ. eigenvalues --   -0.56569  -0.54981  -0.54721  -0.52881  -0.51804
 Alpha  occ. eigenvalues --   -0.51058  -0.49944  -0.49000  -0.48136  -0.47326
 Alpha  occ. eigenvalues --   -0.45876  -0.44199  -0.40669  -0.36580  -0.33154
 Alpha  occ. eigenvalues --   -0.32590  -0.31951  -0.30348
 Alpha virt. eigenvalues --    0.10996   0.12887   0.13207   0.14008   0.15084
 Alpha virt. eigenvalues --    0.19828   0.22059   0.22550   0.23620   0.24528
 Alpha virt. eigenvalues --    0.24912   0.25661   0.27445   0.28615   0.28982
 Alpha virt. eigenvalues --    0.29865   0.30056   0.30889   0.32260   0.32845
 Alpha virt. eigenvalues --    0.33549   0.34166   0.34876   0.35540   0.36393
 Alpha virt. eigenvalues --    0.38077   0.39177   0.39750   0.41928   0.42869
 Alpha virt. eigenvalues --    0.43255   0.44960   0.46070   0.46705   0.47482
 Alpha virt. eigenvalues --    0.48754   0.48868   0.50988   0.52226   0.52566
 Alpha virt. eigenvalues --    0.55203   0.58971   0.60311   0.61164   0.61507
 Alpha virt. eigenvalues --    0.65637   0.68118   0.68908   0.70754   0.72007
 Alpha virt. eigenvalues --    0.72542   0.73425   0.74039   0.74850   0.75773
 Alpha virt. eigenvalues --    0.76086   0.76646   0.77192   0.78199   0.78869
 Alpha virt. eigenvalues --    0.79436   0.80757   0.80988   0.81648   0.81997
 Alpha virt. eigenvalues --    0.82640   0.83191   0.84095   0.84763   0.85063
 Alpha virt. eigenvalues --    0.85953   0.86889   0.87774   0.88734   0.89350
 Alpha virt. eigenvalues --    0.89606   0.92546   0.92972   0.93561   0.93707
 Alpha virt. eigenvalues --    0.95482   0.96244   0.96408   0.98671   0.99723
 Alpha virt. eigenvalues --    1.00553   1.02933   1.03993   1.04322   1.04689
 Alpha virt. eigenvalues --    1.06797   1.07932   1.08973   1.09231   1.09952
 Alpha virt. eigenvalues --    1.10424   1.11125   1.11321   1.11821   1.12511
 Alpha virt. eigenvalues --    1.13512   1.14084   1.14784   1.15401   1.15862
 Alpha virt. eigenvalues --    1.16569   1.17061   1.17281   1.18429   1.19406
 Alpha virt. eigenvalues --    1.20479   1.20847   1.21874   1.22415   1.22928
 Alpha virt. eigenvalues --    1.23506   1.24654   1.25374   1.26285   1.27269
 Alpha virt. eigenvalues --    1.29401   1.29836   1.30657   1.32738   1.33019
 Alpha virt. eigenvalues --    1.34186   1.35341   1.37149   1.38505   1.40794
 Alpha virt. eigenvalues --    1.41659   1.43239   1.44934   1.46095   1.46818
 Alpha virt. eigenvalues --    1.48193   1.49562   1.52651   1.53716   1.55560
 Alpha virt. eigenvalues --    1.56002   1.59589   1.60223   1.61328   1.62895
 Alpha virt. eigenvalues --    1.63948   1.64347   1.64950   1.68308   1.69012
 Alpha virt. eigenvalues --    1.70761   1.70960   1.72130   1.73360   1.73708
 Alpha virt. eigenvalues --    1.75394   1.77186   1.77288   1.77774   1.79564
 Alpha virt. eigenvalues --    1.80542   1.81465   1.82058   1.90336   1.91232
 Alpha virt. eigenvalues --    1.95165   1.95486   1.97372   2.00763   2.02065
 Alpha virt. eigenvalues --    2.02907   2.04298   2.06016   2.06501   2.07938
 Alpha virt. eigenvalues --    2.09751   2.10634   2.11343   2.11434   2.14737
 Alpha virt. eigenvalues --    2.15852   2.16538   2.16869   2.17685   2.19147
 Alpha virt. eigenvalues --    2.19300   2.22709   2.23615   2.24533   2.26547
 Alpha virt. eigenvalues --    2.27798   2.28492   2.29516   2.30973   2.34569
 Alpha virt. eigenvalues --    2.35552   2.35944   2.36852   2.39449   2.41116
 Alpha virt. eigenvalues --    2.42560   2.44113   2.44833   2.45521   2.45729
 Alpha virt. eigenvalues --    2.47136   2.48476   2.49492   2.50898   2.51671
 Alpha virt. eigenvalues --    2.53829   2.54923   2.57235   2.57635   2.60215
 Alpha virt. eigenvalues --    2.60666   2.61407   2.62244   2.63116   2.64043
 Alpha virt. eigenvalues --    2.64602   2.65999   2.69308   2.70736   2.71423
 Alpha virt. eigenvalues --    2.72992   2.75695   2.76436   2.76694   2.81228
 Alpha virt. eigenvalues --    2.83041   2.83810   2.85397   2.88701   2.90634
 Alpha virt. eigenvalues --    2.91729   2.92914   2.92971   2.96431   2.97006
 Alpha virt. eigenvalues --    3.01556   3.04723   3.05435   3.07882   3.08288
 Alpha virt. eigenvalues --    3.09731   3.11270   3.12915   3.14062   3.15008
 Alpha virt. eigenvalues --    3.16813   3.18909   3.22513   3.26514   3.27567
 Alpha virt. eigenvalues --    3.29214   3.33597   3.35535   3.42815   3.48817
 Alpha virt. eigenvalues --    3.52702   3.64066   3.73860   3.82304   4.18334
 Alpha virt. eigenvalues --    4.30375   4.36106   4.49880   4.50732   4.54089
 Alpha virt. eigenvalues --    4.55665   4.56497   4.58123   4.60201   4.61834
 Alpha virt. eigenvalues --    4.64634   4.70376   4.75430   4.77451   4.82040
 Alpha virt. eigenvalues --    4.85560   4.89218   4.92961   5.06816   5.11671
 Alpha virt. eigenvalues --    5.23517
          Condensed to atoms (all electrons):
              1          2          3          4          5          6
     1  C    5.019176  -0.000040   0.513923  -0.055705   0.000396  -0.030579
     2  C   -0.000040   4.882437   0.000195   0.000085  -0.031072   0.000001
     3  C    0.513923   0.000195   4.979640   0.541152   0.001027  -0.039980
     4  C   -0.055705   0.000085   0.541152   5.022122  -0.000112   0.560319
     5  C    0.000396  -0.031072   0.001027  -0.000112   4.930735   0.000003
     6  C   -0.030579   0.000001  -0.039980   0.560319   0.000003   4.385108
     7  C   -0.061783  -0.000001  -0.027046  -0.062972   0.000002   0.561638
     8  C   -0.031044   0.002034   0.333189  -0.032477  -0.034586   0.002246
     9  C   -0.004695  -0.038116  -0.072999  -0.003885   0.554731  -0.000142
    10  C   -0.000010  -0.043830  -0.000031   0.000000   0.527052   0.000000
    11  C   -0.000002   0.553252   0.000000   0.000001  -0.046043   0.000000
    12  C    0.559243  -0.000003  -0.039800  -0.022260   0.000008  -0.039317
    13  O   -0.000291  -0.000024  -0.055232   0.001388  -0.002792  -0.000083
    14  C    0.000840   0.541976  -0.005711  -0.000874  -0.040487  -0.000124
    15  O    0.000777   0.000000   0.000716  -0.041060   0.000000   0.255607
    16  C   -0.040755   0.000000   0.005157   0.000485  -0.000002   0.002417
    17  C   -0.005294   0.000000   0.000396   0.000015   0.000000  -0.000037
    18  C   -0.003181   0.000000  -0.000005  -0.000008   0.000000  -0.000016
    19  O   -0.000042   0.000000  -0.000001   0.000000   0.000000   0.000000
    20  N   -0.000105   0.000000   0.000000   0.000000   0.000000   0.000001
    21  C    0.002806   0.000000  -0.000019   0.000017   0.000000   0.000035
    22  C   -0.000034   0.000000  -0.000010  -0.000002   0.000000   0.000023
    23  H    0.000181   0.000000  -0.000007  -0.000008   0.000000  -0.000079
    24  H   -0.000056   0.000000   0.000001   0.000002   0.000000   0.000248
    25  H    0.000000   0.000000   0.000000   0.000000   0.000000   0.000001
    26  H    0.000482   0.000000   0.000017  -0.000007   0.000000  -0.000013
    27  H   -0.000201   0.000000   0.000016   0.000007  -0.000002  -0.000001
    28  H    0.000194   0.000000   0.000001   0.000000   0.000000   0.000000
    29  H    0.000007   0.000000  -0.000178   0.004288   0.000000  -0.035814
    30  H   -0.000055  -0.026323   0.000855   0.003411   0.002400   0.000252
    31  H    0.000717   0.000001   0.000998   0.000304  -0.000020  -0.000022
    32  H    0.000000  -0.031704   0.000000   0.000000   0.002189   0.000000
    33  H    0.000000   0.002233   0.000001   0.000000  -0.027772   0.000000
    34  H    0.004354  -0.000002  -0.073622   0.001466  -0.000293   0.000146
    35  H    0.002514   0.000000   0.000100   0.002070   0.000000  -0.031094
    36  H   -0.000012   0.000073   0.000162  -0.000004   0.379489   0.000000
    37  H    0.002640  -0.000001  -0.031952   0.375321  -0.000004  -0.023849
    38  H    0.000001   0.383371   0.000000  -0.000002   0.000206   0.000000
    39  H    0.375415  -0.000010  -0.023972   0.002463   0.000615   0.000203
              7          8          9         10         11         12
     1  C   -0.061783  -0.031044  -0.004695  -0.000010  -0.000002   0.559243
     2  C   -0.000001   0.002034  -0.038116  -0.043830   0.553252  -0.000003
     3  C   -0.027046   0.333189  -0.072999  -0.000031   0.000000  -0.039800
     4  C   -0.062972  -0.032477  -0.003885   0.000000   0.000001  -0.022260
     5  C    0.000002  -0.034586   0.554731   0.527052  -0.046043   0.000008
     6  C    0.561638   0.002246  -0.000142   0.000000   0.000000  -0.039317
     7  C    5.142731   0.000390   0.000045   0.000000   0.000000   0.509993
     8  C    0.000390   4.673738   0.353642   0.002183   0.000055   0.000583
     9  C    0.000045   0.353642   4.895737  -0.041531  -0.026251  -0.000182
    10  C    0.000000   0.002183  -0.041531   4.924918   0.541923   0.000000
    11  C    0.000000   0.000055  -0.026251   0.541923   4.897359   0.000000
    12  C    0.509993   0.000583  -0.000182   0.000000   0.000000   4.788787
    13  O    0.000004   0.206782  -0.036595   0.000115  -0.000002   0.000525
    14  C    0.000017  -0.045590   0.545783  -0.031853  -0.045973  -0.000060
    15  O   -0.056228  -0.000041   0.000001   0.000000   0.000000   0.003959
    16  C   -0.037015  -0.000122  -0.000024   0.000000   0.000000   0.306795
    17  C    0.002664  -0.000007   0.000001   0.000000   0.000000  -0.059797
    18  C    0.000006   0.000003   0.000000   0.000000   0.000000  -0.001370
    19  O   -0.000059   0.000000   0.000000   0.000000   0.000000   0.005068
    20  N   -0.000067   0.000000   0.000000   0.000000   0.000000   0.007578
    21  C   -0.007226   0.000001  -0.000001   0.000000   0.000000  -0.040650
    22  C   -0.003568   0.000000   0.000000   0.000000   0.000000  -0.000887
    23  H    0.000120   0.000000   0.000000   0.000000   0.000000   0.001782
    24  H   -0.000733   0.000000   0.000000   0.000000   0.000000  -0.001067
    25  H    0.000215   0.000000   0.000000   0.000000   0.000000  -0.000042
    26  H    0.000360  -0.000003   0.000000   0.000000   0.000000   0.000460
    27  H   -0.000108  -0.000028   0.000001   0.000000   0.000000  -0.000144
    28  H   -0.000001   0.000000   0.000000   0.000000   0.000000   0.000133
    29  H    0.001080   0.000003   0.000000   0.000000   0.000000   0.000945
    30  H    0.000001  -0.001273  -0.033374   0.000132   0.002216  -0.000066
    31  H   -0.000021  -0.021020   0.005564   0.000001   0.000000  -0.000102
    32  H    0.000000   0.000005   0.000208  -0.029493   0.382755   0.000000
    33  H    0.000000  -0.000078   0.001719   0.381493  -0.029503   0.000000
    34  H    0.000009   0.428939  -0.048860   0.000013   0.000017   0.000047
    35  H    0.369618   0.000005   0.000000   0.000000   0.000000  -0.021865
    36  H    0.000000  -0.003731  -0.024370  -0.030375   0.002051   0.000001
    37  H    0.002902  -0.002289   0.000055   0.000000   0.000000  -0.000094
    38  H    0.000000  -0.000085   0.001865   0.002544  -0.031792   0.000000
    39  H    0.002858  -0.002117   0.001003   0.000012  -0.000003  -0.032578
             13         14         15         16         17         18
     1  C   -0.000291   0.000840   0.000777  -0.040755  -0.005294  -0.003181
     2  C   -0.000024   0.541976   0.000000   0.000000   0.000000   0.000000
     3  C   -0.055232  -0.005711   0.000716   0.005157   0.000396  -0.000005
     4  C    0.001388  -0.000874  -0.041060   0.000485   0.000015  -0.000008
     5  C   -0.002792  -0.040487   0.000000  -0.000002   0.000000   0.000000
     6  C   -0.000083  -0.000124   0.255607   0.002417  -0.000037  -0.000016
     7  C    0.000004   0.000017  -0.056228  -0.037015   0.002664   0.000006
     8  C    0.206782  -0.045590  -0.000041  -0.000122  -0.000007   0.000003
     9  C   -0.036595   0.545783   0.000001  -0.000024   0.000001   0.000000
    10  C    0.000115  -0.031853   0.000000   0.000000   0.000000   0.000000
    11  C   -0.000002  -0.045973   0.000000   0.000000   0.000000   0.000000
    12  C    0.000525  -0.000060   0.003959   0.306795  -0.059797  -0.001370
    13  O    8.419652   0.001409   0.000000   0.000002  -0.000002  -0.000049
    14  C    0.001409   4.938812   0.000001  -0.000001   0.000000   0.000000
    15  O    0.000000   0.000001   8.304822  -0.000142   0.000000   0.000000
    16  C    0.000002  -0.000001  -0.000142   5.098620   0.633413  -0.053971
    17  C   -0.000002   0.000000   0.000000   0.633413   4.673256   0.333004
    18  C   -0.000049   0.000000   0.000000  -0.053971   0.333004   5.134798
    19  O    0.000000   0.000000   0.000000  -0.030613   0.232243  -0.033083
    20  N    0.000000   0.000000   0.000000  -0.045190  -0.115440   0.002102
    21  C    0.000000   0.000000   0.000001   0.456702  -0.064864   0.002745
    22  C    0.000000   0.000000  -0.000001  -0.052295   0.002899  -0.000066
    23  H    0.000000   0.000000   0.000000  -0.002724  -0.000101  -0.000001
    24  H    0.000000   0.000000  -0.000010  -0.001890  -0.000032   0.000000
    25  H    0.000000   0.000000   0.000000   0.003527   0.000054   0.000001
    26  H    0.000000   0.000000   0.000000  -0.005547  -0.037568   0.388337
    27  H    0.000382   0.000000   0.000000  -0.003324  -0.038051   0.386971
    28  H    0.000000   0.000000   0.000000   0.003605  -0.037505   0.386596
    29  H    0.000000   0.000000   0.271597  -0.000014   0.000000   0.000000
    30  H    0.000032   0.377023  -0.000012   0.000000   0.000000   0.000000
    31  H    0.258682  -0.000099   0.000000  -0.000002   0.000001   0.000004
    32  H    0.000000   0.002556   0.000000   0.000000   0.000000   0.000000
    33  H   -0.000001   0.000239   0.000000   0.000000   0.000000   0.000000
    34  H   -0.033451  -0.000221  -0.000003   0.000000   0.000000   0.000000
    35  H    0.000000   0.000000  -0.001763  -0.001423   0.000154  -0.000001
    36  H    0.004276   0.002439   0.000000   0.000000   0.000000   0.000000
    37  H    0.000025   0.000038   0.000320   0.000005   0.000000   0.000000
    38  H    0.000000  -0.030066   0.000000   0.000000   0.000000   0.000000
    39  H    0.004242   0.000147   0.000002  -0.000671   0.002627  -0.002189
             19         20         21         22         23         24
     1  C   -0.000042  -0.000105   0.002806  -0.000034   0.000181  -0.000056
     2  C    0.000000   0.000000   0.000000   0.000000   0.000000   0.000000
     3  C   -0.000001   0.000000  -0.000019  -0.000010  -0.000007   0.000001
     4  C    0.000000   0.000000   0.000017  -0.000002  -0.000008   0.000002
     5  C    0.000000   0.000000   0.000000   0.000000   0.000000   0.000000
     6  C    0.000000   0.000001   0.000035   0.000023  -0.000079   0.000248
     7  C   -0.000059  -0.000067  -0.007226  -0.003568   0.000120  -0.000733
     8  C    0.000000   0.000000   0.000001   0.000000   0.000000   0.000000
     9  C    0.000000   0.000000  -0.000001   0.000000   0.000000   0.000000
    10  C    0.000000   0.000000   0.000000   0.000000   0.000000   0.000000
    11  C    0.000000   0.000000   0.000000   0.000000   0.000000   0.000000
    12  C    0.005068   0.007578  -0.040650  -0.000887   0.001782  -0.001067
    13  O    0.000000   0.000000   0.000000   0.000000   0.000000   0.000000
    14  C    0.000000   0.000000   0.000000   0.000000   0.000000   0.000000
    15  O    0.000000   0.000000   0.000001  -0.000001   0.000000  -0.000010
    16  C   -0.030613  -0.045190   0.456702  -0.052295  -0.002724  -0.001890
    17  C    0.232243  -0.115440  -0.064864   0.002899  -0.000101  -0.000032
    18  C   -0.033083   0.002102   0.002745  -0.000066  -0.000001   0.000000
    19  O    8.268151   0.168567  -0.080453   0.002092  -0.000029  -0.000025
    20  N    0.168567   6.759070   0.480940  -0.034810   0.000535   0.000286
    21  C   -0.080453   0.480940   4.718505   0.324786  -0.036640  -0.040129
    22  C    0.002092  -0.034810   0.324786   5.118609   0.388012   0.389052
    23  H   -0.000029   0.000535  -0.036640   0.388012   0.486567  -0.026643
    24  H   -0.000025   0.000286  -0.040129   0.389052  -0.026643   0.518592
    25  H   -0.000065   0.000360  -0.037288   0.386812  -0.019640  -0.021773
    26  H    0.001022  -0.000021   0.000028   0.000000   0.000000  -0.000001
    27  H    0.001433  -0.000068   0.000011   0.000000   0.000000   0.000000
    28  H   -0.001255  -0.000047  -0.000003   0.000001   0.000000   0.000000
    29  H    0.000000   0.000000  -0.000001  -0.000006  -0.000001   0.000000
    30  H    0.000000   0.000000   0.000000   0.000000   0.000000   0.000000
    31  H    0.000000   0.000000   0.000000   0.000000   0.000000   0.000000
    32  H    0.000000   0.000000   0.000000   0.000000   0.000000   0.000000
    33  H    0.000000   0.000000   0.000000   0.000000   0.000000   0.000000
    34  H    0.000000   0.000000   0.000000   0.000000   0.000000   0.000000
    35  H   -0.000003  -0.000041   0.001394  -0.001693  -0.000058   0.000513
    36  H    0.000000   0.000000   0.000000   0.000000   0.000000   0.000000
    37  H    0.000000   0.000000   0.000000   0.000000   0.000000   0.000000
    38  H    0.000000   0.000000   0.000000   0.000000   0.000000   0.000000
    39  H   -0.000049  -0.000007   0.000074   0.000001   0.000001   0.000000
             25         26         27         28         29         30
     1  C    0.000000   0.000482  -0.000201   0.000194   0.000007  -0.000055
     2  C    0.000000   0.000000   0.000000   0.000000   0.000000  -0.026323
     3  C    0.000000   0.000017   0.000016   0.000001  -0.000178   0.000855
     4  C    0.000000  -0.000007   0.000007   0.000000   0.004288   0.003411
     5  C    0.000000   0.000000  -0.000002   0.000000   0.000000   0.002400
     6  C    0.000001  -0.000013  -0.000001   0.000000  -0.035814   0.000252
     7  C    0.000215   0.000360  -0.000108  -0.000001   0.001080   0.000001
     8  C    0.000000  -0.000003  -0.000028   0.000000   0.000003  -0.001273
     9  C    0.000000   0.000000   0.000001   0.000000   0.000000  -0.033374
    10  C    0.000000   0.000000   0.000000   0.000000   0.000000   0.000132
    11  C    0.000000   0.000000   0.000000   0.000000   0.000000   0.002216
    12  C   -0.000042   0.000460  -0.000144   0.000133   0.000945  -0.000066
    13  O    0.000000   0.000000   0.000382   0.000000   0.000000   0.000032
    14  C    0.000000   0.000000   0.000000   0.000000   0.000000   0.377023
    15  O    0.000000   0.000000   0.000000   0.000000   0.271597  -0.000012
    16  C    0.003527  -0.005547  -0.003324   0.003605  -0.000014   0.000000
    17  C    0.000054  -0.037568  -0.038051  -0.037505   0.000000   0.000000
    18  C    0.000001   0.388337   0.386971   0.386596   0.000000   0.000000
    19  O   -0.000065   0.001022   0.001433  -0.001255   0.000000   0.000000
    20  N    0.000360  -0.000021  -0.000068  -0.000047   0.000000   0.000000
    21  C   -0.037288   0.000028   0.000011  -0.000003  -0.000001   0.000000
    22  C    0.386812   0.000000   0.000000   0.000001  -0.000006   0.000000
    23  H   -0.019640   0.000000   0.000000   0.000000  -0.000001   0.000000
    24  H   -0.021773  -0.000001   0.000000   0.000000   0.000000   0.000000
    25  H    0.475418   0.000000   0.000000   0.000000   0.000000   0.000000
    26  H    0.000000   0.496584  -0.024502  -0.020806   0.000000   0.000000
    27  H    0.000000  -0.024502   0.493150  -0.020057   0.000000   0.000000
    28  H    0.000000  -0.020806  -0.020057   0.480097   0.000000   0.000000
    29  H    0.000000   0.000000   0.000000   0.000000   0.290390   0.000000
    30  H    0.000000   0.000000   0.000000   0.000000   0.000000   0.464684
    31  H    0.000000   0.000001   0.000060   0.000000   0.000000   0.000000
    32  H    0.000000   0.000000   0.000000   0.000000   0.000000  -0.000104
    33  H    0.000000   0.000000   0.000000   0.000000   0.000000   0.000008
    34  H    0.000000   0.000000   0.000001   0.000000   0.000000   0.000618
    35  H    0.000036  -0.000005  -0.000001   0.000000   0.004908   0.000000
    36  H    0.000000   0.000000   0.000000   0.000000   0.000000  -0.000089
    37  H    0.000000   0.000000   0.000000   0.000000  -0.000174   0.000207
    38  H    0.000000   0.000000   0.000000   0.000000   0.000000  -0.001185
    39  H    0.000000   0.000086  -0.000202   0.000023  -0.000001  -0.000007
             31         32         33         34         35         36
     1  C    0.000717   0.000000   0.000000   0.004354   0.002514  -0.000012
     2  C    0.000001  -0.031704   0.002233  -0.000002   0.000000   0.000073
     3  C    0.000998   0.000000   0.000001  -0.073622   0.000100   0.000162
     4  C    0.000304   0.000000   0.000000   0.001466   0.002070  -0.000004
     5  C   -0.000020   0.002189  -0.027772  -0.000293   0.000000   0.379489
     6  C   -0.000022   0.000000   0.000000   0.000146  -0.031094   0.000000
     7  C   -0.000021   0.000000   0.000000   0.000009   0.369618   0.000000
     8  C   -0.021020   0.000005  -0.000078   0.428939   0.000005  -0.003731
     9  C    0.005564   0.000208   0.001719  -0.048860   0.000000  -0.024370
    10  C    0.000001  -0.029493   0.381493   0.000013   0.000000  -0.030375
    11  C    0.000000   0.382755  -0.029503   0.000017   0.000000   0.002051
    12  C   -0.000102   0.000000   0.000000   0.000047  -0.021865   0.000001
    13  O    0.258682   0.000000  -0.000001  -0.033451   0.000000   0.004276
    14  C   -0.000099   0.002556   0.000239  -0.000221   0.000000   0.002439
    15  O    0.000000   0.000000   0.000000  -0.000003  -0.001763   0.000000
    16  C   -0.000002   0.000000   0.000000   0.000000  -0.001423   0.000000
    17  C    0.000001   0.000000   0.000000   0.000000   0.000154   0.000000
    18  C    0.000004   0.000000   0.000000   0.000000  -0.000001   0.000000
    19  O    0.000000   0.000000   0.000000   0.000000  -0.000003   0.000000
    20  N    0.000000   0.000000   0.000000   0.000000  -0.000041   0.000000
    21  C    0.000000   0.000000   0.000000   0.000000   0.001394   0.000000
    22  C    0.000000   0.000000   0.000000   0.000000  -0.001693   0.000000
    23  H    0.000000   0.000000   0.000000   0.000000  -0.000058   0.000000
    24  H    0.000000   0.000000   0.000000   0.000000   0.000513   0.000000
    25  H    0.000000   0.000000   0.000000   0.000000   0.000036   0.000000
    26  H    0.000001   0.000000   0.000000   0.000000  -0.000005   0.000000
    27  H    0.000060   0.000000   0.000000   0.000001  -0.000001   0.000000
    28  H    0.000000   0.000000   0.000000   0.000000   0.000000   0.000000
    29  H    0.000000   0.000000   0.000000   0.000000   0.004908   0.000000
    30  H    0.000000  -0.000104   0.000008   0.000618   0.000000  -0.000089
    31  H    0.310554   0.000000   0.000000  -0.002582   0.000000  -0.000080
    32  H    0.000000   0.476205  -0.001003   0.000000   0.000000  -0.000081
    33  H    0.000000  -0.001003   0.467286   0.000002   0.000000  -0.000607
    34  H   -0.002582   0.000000   0.000002   0.532179   0.000000   0.000133
    35  H    0.000000   0.000000   0.000000   0.000000   0.474332   0.000000
    36  H   -0.000080  -0.000081  -0.000607   0.000133   0.000000   0.435332
    37  H    0.000004   0.000000   0.000000   0.002782  -0.000084   0.000000
    38  H    0.000000  -0.001809  -0.000105   0.000000   0.000000   0.000008
    39  H   -0.000248   0.000000   0.000000   0.000142  -0.000112   0.000035
             37         38         39
     1  C    0.002640   0.000001   0.375415
     2  C   -0.000001   0.383371  -0.000010
     3  C   -0.031952   0.000000  -0.023972
     4  C    0.375321  -0.000002   0.002463
     5  C   -0.000004   0.000206   0.000615
     6  C   -0.023849   0.000000   0.000203
     7  C    0.002902   0.000000   0.002858
     8  C   -0.002289  -0.000085  -0.002117
     9  C    0.000055   0.001865   0.001003
    10  C    0.000000   0.002544   0.000012
    11  C    0.000000  -0.031792  -0.000003
    12  C   -0.000094   0.000000  -0.032578
    13  O    0.000025   0.000000   0.004242
    14  C    0.000038  -0.030066   0.000147
    15  O    0.000320   0.000000   0.000002
    16  C    0.000005   0.000000  -0.000671
    17  C    0.000000   0.000000   0.002627
    18  C    0.000000   0.000000  -0.002189
    19  O    0.000000   0.000000  -0.000049
    20  N    0.000000   0.000000  -0.000007
    21  C    0.000000   0.000000   0.000074
    22  C    0.000000   0.000000   0.000001
    23  H    0.000000   0.000000   0.000001
    24  H    0.000000   0.000000   0.000000
    25  H    0.000000   0.000000   0.000000
    26  H    0.000000   0.000000   0.000086
    27  H    0.000000   0.000000  -0.000202
    28  H    0.000000   0.000000   0.000023
    29  H   -0.000174   0.000000  -0.000001
    30  H    0.000207  -0.001185  -0.000007
    31  H    0.000004   0.000000  -0.000248
    32  H    0.000000  -0.001809   0.000000
    33  H    0.000000  -0.000105   0.000000
    34  H    0.002782   0.000000   0.000142
    35  H   -0.000084   0.000000  -0.000112
    36  H    0.000000   0.000008   0.000035
    37  H    0.452560   0.000000  -0.000087
    38  H    0.000000   0.477023   0.000000
    39  H   -0.000087   0.000000   0.440242
 Mulliken atomic charges:
              1
     1  C   -0.249782
     2  C   -0.194533
     3  C   -0.006981
     4  C   -0.295538
     5  C   -0.215667
     6  C    0.432903
     7  C   -0.337825
     8  C    0.170692
     9  C   -0.029329
    10  C   -0.203262
    11  C   -0.200060
    12  C    0.074376
    13  O   -0.768995
    14  C   -0.210222
    15  O   -0.738541
    16  C   -0.235004
    17  C    0.477971
    18  C   -0.540628
    19  O   -0.532900
    20  N   -0.223643
    21  C    0.319230
    22  C   -0.518913
    23  H    0.208734
    24  H    0.183665
    25  H    0.212384
    26  H    0.201096
    27  H    0.204659
    28  H    0.209024
    29  H    0.462972
    30  H    0.210649
    31  H    0.447304
    32  H    0.200277
    33  H    0.206091
    34  H    0.188184
    35  H    0.202499
    36  H    0.235349
    37  H    0.221675
    38  H    0.200026
    39  H    0.232062
 Sum of Mulliken charges=   0.00000
 Atomic charges with hydrogens summed into heavy atoms:
              1
     1  C   -0.017720
     2  C    0.005493
     3  C   -0.006981
     4  C   -0.073863
     5  C    0.019683
     6  C    0.432903
     7  C   -0.135326
     8  C    0.358876
     9  C   -0.029329
    10  C    0.002828
    11  C    0.000217
    12  C    0.074376
    13  O   -0.321690
    14  C    0.000427
    15  O   -0.275569
    16  C   -0.235004
    17  C    0.477971
    18  C    0.074151
    19  O   -0.532900
    20  N   -0.223643
    21  C    0.319230
    22  C    0.085870
    23  H    0.000000
    24  H    0.000000
    25  H    0.000000
    26  H    0.000000
    27  H    0.000000
    28  H    0.000000
    29  H    0.000000
    30  H    0.000000
    31  H    0.000000
    32  H    0.000000
    33  H    0.000000
    34  H    0.000000
    35  H    0.000000
    36  H    0.000000
    37  H    0.000000
    38  H    0.000000
    39  H    0.000000
 Sum of Mulliken charges=   0.00000
 Entering OneElI...
 OneElI was handed  6085381 working-precision words.
 Multipole integrals L=0 to 4 MinM= 0 MaxM= 0.
 Requested accuracy = 0.1000D-12
 PrsmSu:  NPrtUS=   1 ThrOK=F
 PRISM was handed     5595333 working-precision words and  5611 shell-pairs
 Electronic moments (au):
  -156.00000000     0.43849422     1.55937408    -0.31516746
 -4619.93180678 -1685.41877511 -1137.33160273   -14.35338979
     4.54155192     4.66528922 -4532.73868745 -3549.51938687
  -195.13259916  1725.26704769  8002.04322289 -5015.07073595
  -201.34371342   862.98049268   218.33690633  1042.25250890
***************-52907.65192987-22909.74391441  3188.95611207
-16647.49140793  5476.85740905   383.73587267  2102.97405709
 -2006.23457021-40466.42494934-39064.87042982 -5710.67589278
  4939.45944286 -2302.21258382  -686.33657701
 Electronic spatial extent (au):  <R**2>=  7442.6822
 Nuclear    moments (au):
   156.00000000     0.00000000     0.00000000     0.00000000
  4514.97120129  1587.75593209  1050.10460620     0.00000000
     0.00000000     0.00000000  4616.47554923  3565.27683525
   171.29032372 -1697.70456663 -7897.28810818  5022.56433695
   190.62816574  -848.58870321  -229.27775416 -1096.92774537
213134.61123927 47016.99214379 19295.93426274 -4323.40126639
 17152.30292434 -6042.85547316  -157.54032465 -2089.86014623
  2036.74403008 36790.64867499 35842.58256419  4082.19154489
 -4768.82700141  2332.94925553   728.32500250
 Total      moments (au):
     0.00000000     0.43849422     1.55937408    -0.31516746
  -104.96060549   -97.66284301   -87.22699653   -14.35338979
     4.54155192     4.66528922    83.73686178    15.75744838
   -23.84227544    27.56248106   104.75511471     7.49360100
   -10.71554768    14.39178947   -10.94084782   -54.67523647
-18407.89760726 -5890.65978608 -3613.80965167 -1134.44515432
   504.81151641  -565.99806411   226.19554802    13.11391086
    30.50945987 -3675.77627434 -3222.28786562 -1628.48434789
   170.63244146    30.73667171    41.98842549
 Charge=     0.0000 electrons
 Dipole moment (field-independent basis, Debye):
    X=     1.1145    Y=     3.9635    Z=    -0.8011  Tot=     4.1945
 Quadrupole moment (field-independent basis, Debye-Ang):
   XX=  -141.1756   YY=  -131.3599   ZZ=  -117.3233
   XY=   -19.3058   XZ=     6.1085   YZ=     6.2750
 Traceless Quadrupole moment (field-independent basis, Debye-Ang):
   XX=   -11.2227   YY=    -1.4069   ZZ=    12.6296
   XY=   -19.3058   XZ=     6.1085   YZ=     6.2750
 Octapole moment (field-independent basis, Debye-Ang**2):
  XXX=    59.6007  YYY=    11.2155  ZZZ=   -16.9700  XYY=    19.6179
  XXY=    74.5606  XXZ=     5.3337  XZZ=    -7.6269  YZZ=    10.2435
  YYZ=    -7.7873  XYZ=   -38.9157
 Hexadecapole moment (field-independent basis, Debye-Ang**3):
 XXXX= -6933.2963 YYYY= -2218.7048 ZZZZ= -1361.1339 XXXY=  -427.2864
 XXXZ=   190.1362 YYYX=  -213.1820 YYYZ=    85.1961 ZZZX=     4.9393
 ZZZY=    11.4913 XXYY= -1384.4735 XXZZ= -1213.6680 YYZZ=  -613.3652
 XXYZ=    64.2684 YYXZ=    11.5769 ZZXY=    15.8149
 N-N= 1.700843376230D+03 E-N=-5.670110479508D+03  KE= 9.678521521348D+02
 Entering OneElI...
 OneElI was handed  5819050 working-precision words.
 Calculate electrostatic properties
    NBasis =   364  MinDer = 0  MaxDer = 0
    NGrid  =    39  NMatD  =   1
 Requested accuracy = 0.1000D-12
 PrsmSu:  NPrtUS=   1 ThrOK=F
 PRISM was handed     5370538 working-precision words and  5028 shell-pairs
 --------------------------------------------------------
       Center         ----      EFG at Nuclei      ----
                      3XX-RR        3YY-RR        3ZZ-RR
 --------------------------------------------------------
     1   Atom        0.072888      0.094852     -0.167739
     2   Atom       -0.152416      0.097353      0.055064
     3   Atom        0.091649      0.240933     -0.332583
     4   Atom        0.018618      0.131281     -0.149899
     5   Atom       -0.173772      0.085917      0.087856
     6   Atom        0.320098     -0.065781     -0.254316
     7   Atom       -0.015379      0.133100     -0.117721
     8   Atom        0.128351     -0.002778     -0.125573
     9   Atom       -0.176904      0.111379      0.065525
    10   Atom       -0.157887      0.070061      0.087825
    11   Atom       -0.154464      0.101465      0.052999
    12   Atom        0.115100      0.192993     -0.308093
    13   Atom        1.163115      0.037032     -1.200147
    14   Atom       -0.148446      0.056423      0.092024
    15   Atom       -0.487932     -0.692222      1.180154
    16   Atom       -0.021196     -0.003033      0.024229
    17   Atom       -0.223607     -0.056244      0.279851
    18   Atom        0.050122      0.048348     -0.098471
[...]
 9582 Fit       0.020843
 9583 Fit       0.020585
 9584 Fit       0.019880
 9585 Fit       0.018549
 9586 Fit       0.016443
 9587 Fit       0.013466
 9588 Fit       0.009584
 9589 Fit       0.012833
 9590 Fit       0.016288
 9591 Fit       0.018565
 9592 Fit       0.019096
 9593 Fit       0.018887
 9594 Fit       0.018885
 9595 Fit       0.019077
 9596 Fit       0.019413
 9597 Fit       0.019807
 9598 Fit       0.020106
 9599 Fit       0.020083
 9600 Fit       0.019493
 9601 Fit       0.018124
 9602 Fit       0.015820
 9603 Fit       0.012473
 9604 Fit       0.016161
 9605 Fit       0.015995
 9606 Fit       0.016192
 9607 Fit       0.016710
 9608 Fit       0.017516
 9609 Fit       0.018474
 9610 Fit       0.019312
 9611 Fit       0.019690
 9612 Fit       0.019312
 9613 Fit       0.017974
 9614 Fit       0.000263
 9615 Fit       0.001829
 9616 Fit       0.003219
 9617 Fit       0.004417
 9618 Fit      -0.001611
 9619 Fit      -0.000081
 9620 Fit       0.001284
 9621 Fit       0.002478
 9622 Fit       0.003487
 9623 Fit       0.004285
 9624 Fit       0.004828
 9625 Fit       0.005041
 9626 Fit       0.004808
 9627 Fit      -0.000623
 9628 Fit       0.000645
 9629 Fit       0.001788
 9630 Fit       0.002785
 9631 Fit       0.003616
 9632 Fit       0.004255
 9633 Fit       0.004668
 9634 Fit       0.004808
 9635 Fit       0.004615
 9636 Fit       0.004005
 9637 Fit       0.002883
 9638 Fit      -0.000636
 9639 Fit       0.000446
 9640 Fit       0.001493
 9641 Fit       0.002460
 9642 Fit       0.003310
 9643 Fit       0.004009
 9644 Fit       0.004524
 9645 Fit       0.004820
 9646 Fit       0.004856
 9647 Fit       0.004584
 9648 Fit       0.003947
 9649 Fit       0.002882
 9650 Fit       0.001334
 9651 Fit       0.001191
 9652 Fit       0.001959
 9653 Fit       0.002759
 9654 Fit       0.003513
 9655 Fit       0.004164
 9656 Fit       0.004663
 9657 Fit       0.004967
 9658 Fit       0.005035
 9659 Fit       0.004823
 9660 Fit       0.004286
 9661 Fit       0.003380
 9662 Fit       0.002067
 9663 Fit       0.000324
 9664 Fit       0.002573
 9665 Fit       0.002787
 9666 Fit       0.003247
 9667 Fit       0.003801
 9668 Fit       0.004344
 9669 Fit       0.004799
 9670 Fit       0.005105
 9671 Fit       0.005211
 9672 Fit       0.005073
 9673 Fit       0.004650
 9674 Fit       0.003906
 9675 Fit       0.002814
 9676 Fit       0.001364
 9677 Fit      -0.000429
 9678 Fit       0.004308
 9679 Fit       0.004100
 9680 Fit       0.004279
 9681 Fit       0.004623
 9682 Fit       0.004982
 9683 Fit       0.005248
 9684 Fit       0.005337
 9685 Fit       0.005187
 9686 Fit       0.004746
 9687 Fit       0.003979
 9688 Fit       0.002867
 9689 Fit       0.001422
 9690 Fit      -0.000306
 9691 Fit      -0.002219
 9692 Fit       0.005694
 9693 Fit       0.005133
 9694 Fit       0.005050
 9695 Fit       0.005186
 9696 Fit       0.005352
 9697 Fit       0.005409
 9698 Fit       0.005255
 9699 Fit       0.004818
 9700 Fit       0.004057
 9701 Fit       0.002966
 9702 Fit       0.001586
 9703 Fit       0.000020
 9704 Fit      -0.001564
 9705 Fit       0.006142
 9706 Fit       0.005629
 9707 Fit       0.005482
 9708 Fit       0.005463
 9709 Fit       0.005362
 9710 Fit       0.005025
 9711 Fit       0.004363
 9712 Fit       0.003363
 9713 Fit       0.002102
 9714 Fit       0.000770
 9715 Fit      -0.000326
 9716 Fit       0.001566
 9717 Fit       0.006282
 9718 Fit       0.005835
 9719 Fit       0.005541
 9720 Fit       0.005307
 9721 Fit       0.004852
 9722 Fit       0.004015
 9723 Fit       0.002884
 9724 Fit       0.001852
 9725 Fit       0.003307
 9726 Fit       0.004483
 9727 Fit       0.005380
 9728 Fit       0.005235
 9729 Fit       0.004661
 9730 Fit       0.003682
 9731 Fit       0.004510
 9732 Fit       0.000295
 9733 Fit      -0.000708
 9734 Fit       0.000885
 9735 Fit       0.001807
 9736 Fit       0.002306
 9737 Fit      -0.001445
 9738 Fit       0.000328
 9739 Fit       0.001554
 9740 Fit       0.002271
 9741 Fit       0.002575
 9742 Fit       0.002637
 9743 Fit      -0.003049
 9744 Fit      -0.000904
 9745 Fit       0.000743
 9746 Fit       0.001911
 9747 Fit       0.002634
 9748 Fit       0.002962
 9749 Fit       0.002964
 9750 Fit       0.002738
 9751 Fit       0.002430
 9752 Fit      -0.003377
 9753 Fit      -0.001140
 9754 Fit       0.000607
 9755 Fit       0.001900
 9756 Fit       0.002772
 9757 Fit       0.003257
 9758 Fit       0.003393
 9759 Fit       0.003225
 9760 Fit       0.002814
 9761 Fit       0.002233
 9762 Fit       0.001583
 9763 Fit      -0.003586
 9764 Fit      -0.001324
 9765 Fit       0.000465
 9766 Fit       0.001829
 9767 Fit       0.002802
 9768 Fit       0.003415
 9769 Fit       0.003697
 9770 Fit       0.003675
 9771 Fit       0.003377
 9772 Fit       0.002837
 9773 Fit       0.002097
 9774 Fit       0.001203
 9775 Fit       0.000201
 9776 Fit      -0.001246
 9777 Fit       0.000590
 9778 Fit       0.001984
 9779 Fit       0.002983
 9780 Fit       0.003622
 9781 Fit       0.003929
 9782 Fit       0.003926
 9783 Fit       0.003635
 9784 Fit       0.003078
 9785 Fit       0.002279
 9786 Fit       0.001263
 9787 Fit       0.000055
 9788 Fit      -0.001073
 9789 Fit       0.000752
 9790 Fit       0.002130
 9791 Fit       0.003119
 9792 Fit       0.003757
 9793 Fit       0.004073
 9794 Fit       0.004089
 9795 Fit       0.003821
 9796 Fit       0.003284
 9797 Fit       0.002490
 9798 Fit       0.001452
 9799 Fit       0.000182
 9800 Fit      -0.001318
 9801 Fit       0.000299
 9802 Fit       0.001829
 9803 Fit       0.002935
 9804 Fit       0.003676
 9805 Fit       0.004089
 9806 Fit       0.004199
 9807 Fit       0.004023
 9808 Fit       0.003572
 9809 Fit       0.002854
 9810 Fit       0.001875
 9811 Fit       0.000639
 9812 Fit      -0.000856
 9813 Fit      -0.002623
 9814 Fit       0.000193
 9815 Fit       0.001854
 9816 Fit       0.003016
 9817 Fit       0.003769
 9818 Fit       0.004168
 9819 Fit       0.004247
 9820 Fit       0.004024
 9821 Fit       0.003509
 9822 Fit       0.002707
 9823 Fit       0.001617
 9824 Fit       0.000235
 9825 Fit      -0.001449
 9826 Fit       0.002897
 9827 Fit       0.003779
 9828 Fit       0.004247
 9829 Fit       0.004362
 9830 Fit       0.004153
 9831 Fit       0.003631
 9832 Fit       0.002798
 9833 Fit       0.001648
 9834 Fit       0.000171
 9835 Fit      -0.001655
 9836 Fit       0.004228
 9837 Fit       0.004644
 9838 Fit       0.004697
 9839 Fit       0.004433
 9840 Fit       0.003864
 9841 Fit       0.002986
 9842 Fit       0.001783
 9843 Fit       0.000236
 9844 Fit      -0.001686
 9845 Fit       0.004898
 9846 Fit       0.004000
 9847 Fit       0.002794
 9848 Fit       0.001233
 9849 Fit      -0.000735
 9850 Fit       0.002766
 9851 Fit       0.017737
 9852 Fit       0.013960
 9853 Fit       0.010683
 9854 Fit       0.007342
 9855 Fit       0.003511
 9856 Fit       0.019631
 9857 Fit       0.016458
 9858 Fit       0.013965
 9859 Fit       0.011663
 9860 Fit       0.009300
 9861 Fit       0.006694
 9862 Fit       0.003665
 9863 Fit      -0.000024
 9864 Fit       0.016492
 9865 Fit       0.014927
 9866 Fit       0.013364
 9867 Fit       0.011693
 9868 Fit       0.009862
 9869 Fit       0.007812
 9870 Fit       0.005461
 9871 Fit       0.002707
 9872 Fit      -0.000593
 9873 Fit      -0.004669
 9874 Fit       0.014221
 9875 Fit       0.013181
 9876 Fit       0.011877
 9877 Fit       0.010380
 9878 Fit       0.008693
 9879 Fit       0.006778
 9880 Fit       0.004579
 9881 Fit       0.002026
 9882 Fit      -0.000966
 9883 Fit      -0.004513
 9884 Fit       0.012873
 9885 Fit       0.011489
 9886 Fit       0.009967
 9887 Fit       0.008280
 9888 Fit       0.006374
 9889 Fit       0.004188
 9890 Fit       0.001660
 9891 Fit      -0.001277
 9892 Fit      -0.004697
 9893 Fit       0.012827
 9894 Fit       0.011254
 9895 Fit       0.009649
 9896 Fit       0.007922
 9897 Fit       0.005988
 9898 Fit       0.003774
 9899 Fit       0.001214
 9900 Fit      -0.001759
 9901 Fit      -0.005208
 9902 Fit       0.012235
 9903 Fit       0.010482
 9904 Fit       0.008728
 9905 Fit       0.006828
 9906 Fit       0.004673
 9907 Fit       0.002173
 9908 Fit      -0.000759
 9909 Fit      -0.004206
 9910 Fit       0.012135
 9911 Fit       0.010158
 9912 Fit       0.008189
 9913 Fit       0.006017
 9914 Fit       0.003490
 9915 Fit       0.000471
 9916 Fit      -0.003179
 9917 Fit       0.011143
 9918 Fit       0.008968
 9919 Fit       0.006606
 9920 Fit       0.003807
 9921 Fit       0.012323
 9922 Fit       0.009994
 9923 Fit       0.007480
 9924 Fit       0.008732
 9925 Fit       0.010910
 9926 Fit       0.012980
 9927 Fit       0.015045
 9928 Fit       0.006304
 9929 Fit       0.009787
 9930 Fit       0.012175
 9931 Fit       0.014497
 9932 Fit       0.016934
 9933 Fit       0.019673
 9934 Fit       0.022869
 9935 Fit       0.007146
 9936 Fit       0.010823
 9937 Fit       0.013426
 9938 Fit       0.015996
 9939 Fit       0.018775
 9940 Fit       0.022065
 9941 Fit       0.026274
 9942 Fit       0.007969
 9943 Fit       0.011934
 9944 Fit       0.014593
 9945 Fit       0.017258
 9946 Fit       0.020188
 9947 Fit       0.023733
 9948 Fit       0.028431
 9949 Fit       0.009065
 9950 Fit       0.013191
 9951 Fit       0.015814
 9952 Fit       0.018498
 9953 Fit       0.021505
 9954 Fit       0.025209
 9955 Fit       0.030214
 9956 Fit       0.010433
 9957 Fit       0.014650
 9958 Fit       0.017200
 9959 Fit       0.019908
 9960 Fit       0.023051
 9961 Fit       0.027055
 9962 Fit       0.032643
 9963 Fit       0.012084
 9964 Fit       0.016356
 9965 Fit       0.018697
 9966 Fit       0.021346
 9967 Fit       0.024578
 9968 Fit       0.028856
 9969 Fit       0.020231
 9970 Fit       0.022615
 9971 Fit       0.025708
 9972 Fit       0.029904
 9973 Fit       0.023991
 9974 Fit       0.027024
 9975 Fit       0.031257
 9976 Fit       0.024937
 9977 Fit       0.027540
 9978 Fit       0.031001
 9979 Fit       0.027001
 9980 Fit      -0.012905
 9981 Fit      -0.009534
 9982 Fit      -0.010060
 9983 Fit      -0.011997
 9984 Fit      -0.008528
 9985 Fit      -0.006485
 9986 Fit      -0.005913
 9987 Fit      -0.006971
 9988 Fit      -0.015432
 9989 Fit      -0.011324
 9990 Fit      -0.008216
 9991 Fit      -0.005874
 9992 Fit      -0.004301
 9993 Fit      -0.003538
 9994 Fit      -0.003600
 9995 Fit      -0.004540
 9996 Fit      -0.006583
 9997 Fit      -0.016520
 9998 Fit      -0.012645
 9999 Fit      -0.009523
 **** Fit      -0.006878
 **** Fit      -0.004702
 **** Fit      -0.003080
 **** Fit      -0.002073
 **** Fit      -0.001675
 **** Fit      -0.001834
 **** Fit      -0.002528
 **** Fit      -0.003854
 **** Fit      -0.006126
 **** Fit      -0.009766
 **** Fit      -0.007095
 **** Fit      -0.004710
 **** Fit      -0.002759
 **** Fit      -0.001370
 **** Fit      -0.000579
 **** Fit      -0.000327
 **** Fit      -0.000505
 **** Fit      -0.001026
 **** Fit      -0.001880
 **** Fit      -0.003200
 **** Fit      -0.005361
 **** Fit      -0.002798
 **** Fit      -0.001001
 **** Fit       0.000153
 **** Fit       0.000682
 **** Fit       0.000713
 **** Fit       0.000405
 **** Fit      -0.000109
 **** Fit      -0.000756
 **** Fit      -0.001548
 **** Fit      -0.002632
 **** Fit      -0.004385
 **** Fit       0.001238
 **** Fit       0.001846
 **** Fit       0.001779
 **** Fit       0.001301
 **** Fit       0.000640
 **** Fit      -0.000054
 **** Fit      -0.000704
 **** Fit      -0.001301
 **** Fit      -0.001942
 **** Fit      -0.002923
 **** Fit       0.002380
 **** Fit       0.001318
 **** Fit       0.000307
 **** Fit      -0.000538
 **** Fit      -0.001151
 **** Fit      -0.001499
 **** Fit      -0.001581
 **** Fit      -0.000436
 **** Fit      -0.001482
 **** Fit      -0.002115
 **** Fit      -0.002269
 **** Fit       0.011262
 **** Fit       0.014316
 **** Fit       0.007826
 **** Fit       0.010098
 **** Fit       0.012429
 **** Fit       0.003281
 **** Fit       0.005594
 **** Fit       0.007820
 **** Fit       0.009904
 **** Fit       0.011920
 **** Fit       0.001370
 **** Fit       0.004002
 **** Fit       0.006384
 **** Fit       0.008488
 **** Fit       0.010375
 **** Fit       0.012187
 **** Fit      -0.000761
 **** Fit       0.002303
 **** Fit       0.004921
 **** Fit       0.007129
 **** Fit       0.009010
 **** Fit       0.010675
 **** Fit       0.012281
 **** Fit      -0.001347
 **** Fit       0.002085
 **** Fit       0.004833
 **** Fit       0.007054
 **** Fit       0.008886
 **** Fit       0.010462
 **** Fit       0.011941
 **** Fit      -0.001571
 **** Fit       0.001994
 **** Fit       0.004746
 **** Fit       0.006913
 **** Fit       0.008664
 **** Fit       0.010136
 **** Fit       0.011473
 **** Fit      -0.004979
 **** Fit      -0.000490
 **** Fit       0.002819
 **** Fit       0.005335
 **** Fit       0.007299
 **** Fit       0.008878
 **** Fit       0.010207
 **** Fit       0.011420
 **** Fit      -0.000937
 **** Fit       0.002526
 **** Fit       0.005099
 **** Fit       0.007073
 **** Fit       0.008642
 **** Fit       0.009958
 **** Fit       0.011161
 **** Fit      -0.004555
 **** Fit      -0.000011
 **** Fit       0.003209
 **** Fit       0.005592
 **** Fit       0.007434
 **** Fit       0.008948
 **** Fit       0.010322
 **** Fit      -0.003021
 **** Fit       0.000971
 **** Fit       0.003839
 **** Fit       0.006013
 **** Fit       0.007790
 **** Fit       0.009446
 **** Fit      -0.003269
 **** Fit       0.000815
 **** Fit       0.003740
 **** Fit       0.006023
 **** Fit       0.008095
 **** Fit      -0.003160
 **** Fit       0.000796
 **** Fit       0.003702
 **** Fit       0.006155
 **** Fit      -0.001491
 **** Fit       0.001924
 **** Fit       0.003693
 **** Fit       0.002334
 **** Fit       0.001161
 **** Fit       0.000159
 **** Fit      -0.000680
 **** Fit       0.006379
 **** Fit       0.005342
 **** Fit       0.004307
 **** Fit       0.003340
 **** Fit       0.002475
 **** Fit       0.001730
 **** Fit       0.001126
 **** Fit       0.000695
 **** Fit       0.000490
 **** Fit       0.005213
 **** Fit       0.006333
 **** Fit       0.006704
 **** Fit       0.006524
 **** Fit       0.006018
 **** Fit       0.005358
 **** Fit       0.004656
 **** Fit       0.003981
 **** Fit       0.003377
 **** Fit       0.002884
 **** Fit       0.002543
 **** Fit       0.002413
 **** Fit       0.002572
 **** Fit       0.003129
 **** Fit       0.002051
 **** Fit       0.003840
 **** Fit       0.005197
 **** Fit       0.006023
 **** Fit       0.006351
 **** Fit       0.006297
 **** Fit       0.005996
 **** Fit       0.005566
 **** Fit       0.005090
 **** Fit       0.004634
 **** Fit       0.004247
 **** Fit       0.003980
 **** Fit       0.003886
 **** Fit       0.004030
 **** Fit       0.004479
 **** Fit       0.005288
 **** Fit       0.000146
 **** Fit       0.001796
 **** Fit       0.003385
 **** Fit       0.004717
 **** Fit       0.005655
 **** Fit       0.006169
 **** Fit       0.006316
 **** Fit       0.006204
 **** Fit       0.005938
 **** Fit       0.005611
 **** Fit       0.005297
 **** Fit       0.005062
 **** Fit       0.004965
 **** Fit       0.005060
 **** Fit       0.005381
 **** Fit       0.005901
 **** Fit       0.006453
 **** Fit       0.000631
 **** Fit       0.001846
 **** Fit       0.003182
 **** Fit       0.004424
 **** Fit       0.005400
 **** Fit       0.006026
 **** Fit       0.006312
 **** Fit       0.006336
 **** Fit       0.006195
 **** Fit       0.005988
 **** Fit       0.005797
 **** Fit       0.005689
 **** Fit       0.005710
 **** Fit       0.005853
 **** Fit       0.006022
 **** Fit       0.005977
 **** Fit       0.005403
 **** Fit       0.004153
 **** Fit       0.002477
 **** Fit      -0.000569
 **** Fit      -0.000242
 **** Fit       0.002257
 **** Fit       0.003262
 **** Fit       0.004369
 **** Fit       0.005325
 **** Fit       0.005977
 **** Fit       0.006299
 **** Fit       0.006360
 **** Fit       0.006272
 **** Fit       0.006144
 **** Fit       0.006049
 **** Fit       0.005998
 **** Fit       0.005888
 **** Fit       0.005504
 **** Fit       0.004658
 **** Fit       0.003451
 **** Fit       0.002296
 **** Fit       0.001626
 **** Fit       0.001636
 **** Fit       0.003577
 **** Fit       0.004454
 **** Fit       0.005378
 **** Fit       0.006004
 **** Fit       0.006253
 **** Fit       0.006242
 **** Fit       0.006112
 **** Fit       0.005878
 **** Fit       0.005380
 **** Fit       0.004510
 **** Fit       0.003594
 **** Fit       0.003205
 **** Fit       0.004617
 **** Fit       0.005398
 **** Fit       0.005930
 **** Fit       0.005887
 **** Fit       0.005366
 **** Fit       0.004613
 **** Fit       0.005387
 **** Fit      -0.001141
 **** Fit      -0.003038
 **** Fit       0.001564
 **** Fit      -0.000953
 **** Fit       0.002457
 **** Fit       0.000105
 **** Fit       0.002618
 **** Fit      -0.001073
 **** Fit       0.000954
 **** Fit       0.003000
 **** Fit      -0.001037
 **** Fit       0.000672
 **** Fit       0.002242
 **** Fit      -0.002221
 **** Fit      -0.000761
 **** Fit       0.000305
 **** Fit      -0.004763
 **** Fit      -0.003095
 **** Fit      -0.002200
 **** Fit      -0.001935
 **** Fit      -0.005937
 **** Fit      -0.004640
 **** Fit      -0.004355
 **** Fit      -0.009129
 **** Fit      -0.007055
 **** Fit      -0.006266
 **** Fit      -0.011110
 **** Fit      -0.008667
 **** Fit      -0.007673
 **** Fit      -0.012638
 **** Fit      -0.009877
 -----------------------------------------------------------------
 Leave Link  602 at Wed Jun  8 13:33:01 2016, MaxMem=    6291456 cpu:       7.6

 Test job not archived.
 1\1\GINC-COMPUTE-2-8\FOpt\RHF\6-31G(d)\C18H17N1O3\DAVE\08-Jun-2016\0\\
 #HF/6-31G* SCF=tight Test Pop=MK iop(6/33=2) iop(6/42=6) opt\\remark l
 ine goes here\\0,1\C,0.8161691785,9.6882530598,-10.0376016895\C,3.8790
 21262,7.5938647365,-13.2366682192\C,2.0728848517,10.2636406813,-10.231
 6869978\C,2.9292690788,10.4163389834,-9.1612870576\C,1.8618754646,9.43
 11816997,-13.7111547663\C,2.5417923405,9.9890011344,-7.8938730288\C,1.
 2982374975,9.4249017422,-7.7006962816\C,2.4875348524,10.73377051,-11.6
 207799703\C,2.6706465579,9.5793248565,-12.5951094579\C,2.0579491714,8.
 3671539976,-14.5818308105\C,3.063111977,7.4471679806,-14.3496154999\C,
 0.4223713395,9.2700945191,-8.7792486547\O,1.5352468947,11.6184414848,-
 12.1515781378\C,3.68264953,8.6508288684,-12.3684051733\O,3.425277848,1
 0.1695515577,-6.8880676191\C,-0.9109944124,8.6590142823,-8.5659377916\
 C,-2.1319715105,9.1821545597,-8.7912230918\C,-2.6068476335,10.50522448
 26,-9.2869870069\O,-3.0660563758,8.2996510498,-8.4761816297\N,-2.48357
 14129,7.1460948511,-8.0338968836\C,-1.2175357147,7.3395031838,-8.07653
 4335\C,-0.2680683097,6.2540190566,-7.6741862713\H,0.4431090906,6.05829
 47949,-8.4688157586\H,0.2943590486,6.5354869858,-6.7908132721\H,-0.818
 4053082,5.3478790548,-7.460258048\H,-1.7720528426,11.1757007942,-9.435
 0790833\H,-3.1338411343,10.3881734046,-10.227707108\H,-3.2939988519,10
 .944459643,-8.5725752029\H,3.0703173844,9.8555195493,-6.0680156269\H,4
 .3180436518,8.7521722271,-11.5054787226\H,1.4016239949,12.3304219314,-
 11.5410978631\H,3.2139878059,6.6252595922,-15.026562487\H,1.4224861672
 ,8.26412649,-15.4435929346\H,3.4424889543,11.2458021699,-11.5289493992
 \H,0.9928050605,9.1196830739,-6.7142934235\H,1.0874962908,10.147018196
 5,-13.9040934434\H,3.8999470217,10.8633598685,-9.277819978\H,4.6662661
 852,6.8859284236,-13.0472237268\H,0.1603750062,9.5535365223,-10.877073
 5478\\Version=AM64L-G03RevD.02\State=1-A\HF=-970.5133142\RMSD=8.876e-0
 9\RMSF=6.158e-06\Thermal=0.\Dipole=0.8330496,0.6755577,0.5312994\PG=C0
 1 [X(C18H17N1O3)]\\@



 IN THIS SHORT LIFE

 THAT ONLY LASTS AN HOUR

 HOW MUCH, HOW LITTLE, IS WITHIN OUR POWER....


 EMILY DICKINSON BOLTS OF MELODY NO. 521
 Job cpu time:  0 days  4 hours  3 minutes 47.8 seconds.
 File lengths (MBytes):  RWF=     95 Int=      0 D2E=      0 Chk=     15 Scr=      1
 Normal termination of Gaussian 03 at Wed Jun  8 13:33:01 2016.
