 Entering Gaussian System, Link 0=/share/apps/g03/g03
 Initial command:
 /share/apps//g03/l1.exe /state/partition1/mmpbsa.9/Gau-21583.inp -scrdir=/state/partition1/mmpbsa.9/
 Entering Link 1 = /share/apps//g03/l1.exe PID=     21584.
  
 Copyright (c) 1988,1990,1992,1993,1995,1998,2003,2004, Gaussian, Inc.
                  All Rights Reserved.
  
 This is the Gaussian(R) 03 program.  It is based on the
 the Gaussian(R) 98 system (copyright 1998, Gaussian, Inc.),
 the Gaussian(R) 94 system (copyright 1995, Gaussian, Inc.),
 the Gaussian 92(TM) system (copyright 1992, Gaussian, Inc.),
 the Gaussian 90(TM) system (copyright 1990, Gaussian, Inc.),
 the Gaussian 88(TM) system (copyright 1988, Gaussian, Inc.),
 the Gaussian 86(TM) system (copyright 1986, Carnegie Mellon
 University), and the Gaussian 82(TM) system (copyright 1983,
 Carnegie Mellon University). Gaussian is a federally registered
 trademark of Gaussian, Inc.
  
 This software contains proprietary and confidential information,
 including trade secrets, belonging to Gaussian, Inc.
  
 This software is provided under written license and may be
 used, copied, transmitted, or stored only in accord with that
 written license.
  
 The following legend is applicable only to US Government
 contracts under FAR:
  
                    RESTRICTED RIGHTS LEGEND
  
 Use, reproduction and disclosure by the US Government is
 subject to restrictions as set forth in subparagraphs (a)
 and (c) of the Commercial Computer Software - Restricted
 Rights clause in FAR 52.227-19.
  
 Gaussian, Inc.
 340 Quinnipiac St., Bldg. 40, Wallingford CT 06492
  
  
 ---------------------------------------------------------------
 Warning -- This program may not be used in any manner that
 competes with the business of Gaussian, Inc. or will provide
 assistance to any competitor of Gaussian, Inc.  The licensee
 of this program is prohibited from giving any competitor of
 Gaussian, Inc. access to this program.  By using this program,
 the user acknowledges that Gaussian, Inc. is engaged in the
 business of creating and licensing software in the field of
 computational chemistry and represents and warrants to the
 licensee that it is not a competitor of Gaussian, Inc. and that
 it will not use this program in any manner prohibited above.
 ---------------------------------------------------------------
  

 Cite this work as:
 Gaussian 03, Revision D.02,
 M. J. Frisch, G. W. Trucks, H. B. Schlegel, G. E. Scuseria, 
 M. A. Robb, J. R. Cheeseman, J. A. Montgomery, Jr., T. Vreven, 
 K. N. Kudin, J. C. Burant, J. M. Millam, S. S. Iyengar, J. Tomasi, 
 V. Barone, B. Mennucci, M. Cossi, G. Scalmani, N. Rega, 
 G. A. Petersson, H. Nakatsuji, M. Hada, M. Ehara, K. Toyota, 
 R. Fukuda, J. Hasegawa, M. Ishida, T. Nakajima, Y. Honda, O. Kitao, 
 H. Nakai, M. Klene, X. Li, J. E. Knox, H. P. Hratchian, J. B. Cross, 
 V. Bakken, C. Adamo, J. Jaramillo, R. Gomperts, R. E. Stratmann, 
 O. Yazyev, A. J. Austin, R. Cammi, C. Pomelli, J. W. Ochterski, 
 P. Y. Ayala, K. Morokuma, G. A. Voth, P. Salvador, J. J. Dannenberg, 
 V. G. Zakrzewski, S. Dapprich, A. D. Daniels, M. C. Strain, 
 O. Farkas, D. K. Malick, A. D. Rabuck, K. Raghavachari, 
 J. B. Foresman, J. V. Ortiz, Q. Cui, A. G. Baboul, S. Clifford, 
 J. Cioslowski, B. B. Stefanov, G. Liu, A. Liashenko, P. Piskorz, 
 I. Komaromi, R. L. Martin, D. J. Fox, T. Keith, M. A. Al-Laham, 
 C. Y. Peng, A. Nanayakkara, M. Challacombe, P. M. W. Gill, 
 B. Johnson, W. Chen, M. W. Wong, C. Gonzalez, and J. A. Pople, 
 Gaussian, Inc., Wallingford CT, 2004.
 
 ******************************************
 Gaussian 03:  AM64L-G03RevD.02  1-Mar-2006
                 8-Jun-2016 
 ******************************************
 %chk=molecule
 ------------------------------------------------------------
 #HF/6-31G* SCF=tight Test Pop=MK iop(6/33=2) iop(6/42=6) opt
 ------------------------------------------------------------
 1/18=20,38=1/1,3;
 2/9=110,17=6,18=5,40=1/2;
 3/5=1,6=6,7=1,11=9,16=1,25=1,30=1/1,2,3;
 4//1;
 5/5=2,32=2,38=5/2;
 6/7=2,8=2,9=2,10=2,15=8,20=1,28=1,33=2,42=6/1,2;
 7//1,2,3,16;
 1/18=20/3(3);
 2/9=110/2;
 6/7=2,8=2,9=2,10=2,15=8,19=2,20=1,28=1,33=2,42=6/1,2;
 99//99;
 2/9=110/2;
 3/5=1,6=6,7=1,11=9,16=1,25=1,30=1/1,2,3;
 4/5=5,16=3/1;
 5/5=2,32=2,38=5/2;
 7//1,2,3,16;
 1/18=20/3(-5);
 2/9=110/2;
 6/7=2,8=2,9=2,10=2,15=8,19=2,20=1,28=1,33=2,42=6/1,2;
 99/9=1/99;
 ---------------------
 remark line goes here
 ---------------------
 Symbolic Z-matrix:
 Charge =  0 Multiplicity = 1
 Cl                    4.873     11.059   -7.976 
 C                     3.283     10.346   -8.19 
 C                     2.739     10.281   -9.449 
 C                     1.476     9.687    -9.606 
 C                     0.904     9.605    -10.988 
 C                     1.805     9.163    -12.11 
 C                     2.98      8.428    -11.881 
 C                     3.751     7.958    -12.947 
 C                     3.346     8.206    -14.254 
 C                     2.152     8.901    -14.477 
 C                     1.401     9.384    -13.427 
 N                    -0.366     9.746    -11.202 
 N                    -1.367     10.089   -10.196 
 C                    -2.503     10.902   -10.561 
 C                    -1.482     9.129    -9.243 
 N                    -0.489     8.602    -8.563 
 C                    -0.959     7.55     -7.864 
 C                    -0.25      6.66     -6.905 
 N                    -2.238     7.389    -8.176 
 N                    -2.605     8.411    -9.069 
 C                     0.773     9.174    -8.496 
 C                     1.379     9.334    -7.235 
 C                     2.63      9.883    -7.069 
 H                     3.086     9.95     -6.088 
 H                     0.835     9.01     -6.354 
 H                     0.586     6.16     -7.418 
 H                     0.139     7.258    -6.067 
 H                    -0.949     5.902    -6.521 
 H                    -2.153     11.877   -10.932 
 H                    -3.08      10.395   -11.349 
 H                    -3.143     11.054   -9.679 
 H                     0.49      9.937    -13.625 
 H                     1.813     9.064    -15.494 
 H                     3.947     7.864    -15.089 
 H                     4.662     7.403    -12.756 
 H                     3.292     8.223    -10.863 
 H                     3.273     10.68    -10.304 
 

 GradGradGradGradGradGradGradGradGradGradGradGradGradGradGradGradGradGrad
 Berny optimization.
 Initialization pass.
                           ----------------------------
                           !    Initial Parameters    !
                           ! (Angstroms and Degrees)  !
 --------------------------                            --------------------------
 ! Name  Definition              Value          Derivative Info.                !
 --------------------------------------------------------------------------------
 ! R1    R(1,2)                  1.7556         estimate D2E/DX2                !
 ! R2    R(2,3)                  1.373          estimate D2E/DX2                !
 ! R3    R(2,23)                 1.3775         estimate D2E/DX2                !
 ! R4    R(3,4)                  1.4045         estimate D2E/DX2                !
 ! R5    R(3,37)                 1.0842         estimate D2E/DX2                !
 ! R6    R(4,5)                  1.4979         estimate D2E/DX2                !
 ! R7    R(4,21)                 1.4105         estimate D2E/DX2                !
 ! R8    R(5,6)                  1.5053         estimate D2E/DX2                !
 ! R9    R(5,12)                 1.2956         estimate D2E/DX2                !
 ! R10   R(6,7)                  1.4047         estimate D2E/DX2                !
 ! R11   R(6,11)                 1.3952         estimate D2E/DX2                !
 ! R12   R(7,8)                  1.397          estimate D2E/DX2                !
 ! R13   R(7,36)                 1.0843         estimate D2E/DX2                !
 ! R14   R(8,9)                  1.3906         estimate D2E/DX2                !
 ! R15   R(8,35)                 1.0837         estimate D2E/DX2                !
 ! R16   R(9,10)                 1.3994         estimate D2E/DX2                !
 ! R17   R(9,34)                 1.0842         estimate D2E/DX2                !
 ! R18   R(10,11)                1.3783         estimate D2E/DX2                !
 ! R19   R(10,33)                1.0843         estimate D2E/DX2                !
 ! R20   R(11,32)                1.0839         estimate D2E/DX2                !
 ! R21   R(12,13)                1.46           estimate D2E/DX2                !
 ! R22   R(13,14)                1.4438         estimate D2E/DX2                !
 ! R23   R(13,15)                1.3576         estimate D2E/DX2                !
 ! R24   R(14,29)                1.1003         estimate D2E/DX2                !
 ! R25   R(14,30)                1.1004         estimate D2E/DX2                !
 ! R26   R(14,31)                1.1003         estimate D2E/DX2                !
 ! R27   R(15,16)                1.3138         estimate D2E/DX2                !
 ! R28   R(15,20)                1.3442         estimate D2E/DX2                !
 ! R29   R(16,17)                1.3477         estimate D2E/DX2                !
 ! R30   R(16,21)                1.3872         estimate D2E/DX2                !
 ! R31   R(17,18)                1.4881         estimate D2E/DX2                !
 ! R32   R(17,19)                1.3263         estimate D2E/DX2                !
 ! R33   R(18,26)                1.1009         estimate D2E/DX2                !
 ! R34   R(18,27)                1.1005         estimate D2E/DX2                !
 ! R35   R(18,28)                1.1003         estimate D2E/DX2                !
 ! R36   R(19,20)                1.4059         estimate D2E/DX2                !
 ! R37   R(21,22)                1.4082         estimate D2E/DX2                !
 ! R38   R(22,23)                1.3762         estimate D2E/DX2                !
 ! R39   R(22,25)                1.0849         estimate D2E/DX2                !
 ! R40   R(23,24)                1.0839         estimate D2E/DX2                !
 ! A1    A(1,2,3)              119.3284         estimate D2E/DX2                !
 ! A2    A(1,2,23)             117.8165         estimate D2E/DX2                !
 ! A3    A(3,2,23)             122.8529         estimate D2E/DX2                !
 ! A4    A(2,3,4)              118.6071         estimate D2E/DX2                !
 ! A5    A(2,3,37)             120.7013         estimate D2E/DX2                !
 ! A6    A(4,3,37)             120.6916         estimate D2E/DX2                !
 ! A7    A(3,4,5)              118.0126         estimate D2E/DX2                !
 ! A8    A(3,4,21)             120.9334         estimate D2E/DX2                !
 ! A9    A(5,4,21)             121.0522         estimate D2E/DX2                !
 ! A10   A(4,5,6)              118.3707         estimate D2E/DX2                !
 ! A11   A(4,5,12)             121.3822         estimate D2E/DX2                !
 ! A12   A(6,5,12)             119.7062         estimate D2E/DX2                !
 ! A13   A(5,6,7)              122.193          estimate D2E/DX2                !
 ! A14   A(5,6,11)             118.9307         estimate D2E/DX2                !
 ! A15   A(7,6,11)             118.6184         estimate D2E/DX2                !
 ! A16   A(6,7,8)              120.8814         estimate D2E/DX2                !
 ! A17   A(6,7,36)             119.5157         estimate D2E/DX2                !
 ! A18   A(8,7,36)             119.6029         estimate D2E/DX2                !
 ! A19   A(7,8,9)              119.7649         estimate D2E/DX2                !
 ! A20   A(7,8,35)             120.1153         estimate D2E/DX2                !
 ! A21   A(9,8,35)             120.1198         estimate D2E/DX2                !
 ! A22   A(8,9,10)             119.1324         estimate D2E/DX2                !
 ! A23   A(8,9,34)             120.4094         estimate D2E/DX2                !
 ! A24   A(10,9,34)            120.4582         estimate D2E/DX2                !
 ! A25   A(9,10,11)            121.1661         estimate D2E/DX2                !
 ! A26   A(9,10,33)            119.3967         estimate D2E/DX2                !
 ! A27   A(11,10,33)           119.4371         estimate D2E/DX2                !
 ! A28   A(6,11,10)            120.3857         estimate D2E/DX2                !
 ! A29   A(6,11,32)            119.7759         estimate D2E/DX2                !
 ! A30   A(10,11,32)           119.8383         estimate D2E/DX2                !
 ! A31   A(5,12,13)            125.7192         estimate D2E/DX2                !
 ! A32   A(12,13,14)           119.8362         estimate D2E/DX2                !
 ! A33   A(12,13,15)           112.0636         estimate D2E/DX2                !
 ! A34   A(14,13,15)           120.5963         estimate D2E/DX2                !
 ! A35   A(13,14,29)           109.5061         estimate D2E/DX2                !
 ! A36   A(13,14,30)           109.5205         estimate D2E/DX2                !
 ! A37   A(13,14,31)           109.4383         estimate D2E/DX2                !
 ! A38   A(29,14,30)           109.4869         estimate D2E/DX2                !
 ! A39   A(29,14,31)           109.4439         estimate D2E/DX2                !
 ! A40   A(30,14,31)           109.4315         estimate D2E/DX2                !
 ! A41   A(13,15,16)           125.6578         estimate D2E/DX2                !
 ! A42   A(13,15,20)           122.6391         estimate D2E/DX2                !
 ! A43   A(16,15,20)           110.4977         estimate D2E/DX2                !
 ! A44   A(15,16,17)           108.5405         estimate D2E/DX2                !
 ! A45   A(15,16,21)           123.1743         estimate D2E/DX2                !
 ! A46   A(17,16,21)           127.8867         estimate D2E/DX2                !
 ! A47   A(16,17,18)           129.4169         estimate D2E/DX2                !
 ! A48   A(16,17,19)           108.0023         estimate D2E/DX2                !
 ! A49   A(18,17,19)           122.5779         estimate D2E/DX2                !
 ! A50   A(17,18,26)           109.4583         estimate D2E/DX2                !
 ! A51   A(17,18,27)           109.5202         estimate D2E/DX2                !
 ! A52   A(17,18,28)           109.5271         estimate D2E/DX2                !
 ! A53   A(26,18,27)           109.4621         estimate D2E/DX2                !
 ! A54   A(26,18,28)           109.3997         estimate D2E/DX2                !
 ! A55   A(27,18,28)           109.4597         estimate D2E/DX2                !
 ! A56   A(17,19,20)           108.2342         estimate D2E/DX2                !
 ! A57   A(15,20,19)           104.6206         estimate D2E/DX2                !
 ! A58   A(4,21,16)            124.4292         estimate D2E/DX2                !
 ! A59   A(4,21,22)            116.6731         estimate D2E/DX2                !
 ! A60   A(16,21,22)           118.7904         estimate D2E/DX2                !
 ! A61   A(21,22,23)           122.9926         estimate D2E/DX2                !
 ! A62   A(21,22,25)           118.5191         estimate D2E/DX2                !
 ! A63   A(23,22,25)           118.4883         estimate D2E/DX2                !
 ! A64   A(2,23,22)            117.8301         estimate D2E/DX2                !
 ! A65   A(2,23,24)            121.0877         estimate D2E/DX2                !
 ! A66   A(22,23,24)           121.0822         estimate D2E/DX2                !
 ! D1    D(1,2,3,4)            178.9296         estimate D2E/DX2                !
 ! D2    D(1,2,3,37)            -1.0845         estimate D2E/DX2                !
 ! D3    D(23,2,3,4)            -1.6148         estimate D2E/DX2                !
 ! D4    D(23,2,3,37)          178.3711         estimate D2E/DX2                !
 ! D5    D(1,2,23,22)          179.4789         estimate D2E/DX2                !
 ! D6    D(1,2,23,24)           -0.4452         estimate D2E/DX2                !
 ! D7    D(3,2,23,22)            0.0155         estimate D2E/DX2                !
 ! D8    D(3,2,23,24)         -179.9086         estimate D2E/DX2                !
 ! D9    D(2,3,4,5)           -179.1152         estimate D2E/DX2                !
 ! D10   D(2,3,4,21)             0.3972         estimate D2E/DX2                !
 ! D11   D(37,3,4,5)             0.8989         estimate D2E/DX2                !
 ! D12   D(37,3,4,21)         -179.5887         estimate D2E/DX2                !
 ! D13   D(3,4,5,6)             44.516          estimate D2E/DX2                !
 ! D14   D(3,4,5,12)          -143.9465         estimate D2E/DX2                !
 ! D15   D(21,4,5,6)          -134.9959         estimate D2E/DX2                !
 ! D16   D(21,4,5,12)           36.5417         estimate D2E/DX2                !
 ! D17   D(3,4,21,16)          178.4303         estimate D2E/DX2                !
 ! D18   D(3,4,21,22)            2.2529         estimate D2E/DX2                !
 ! D19   D(5,4,21,16)           -2.0722         estimate D2E/DX2                !
 ! D20   D(5,4,21,22)         -178.2495         estimate D2E/DX2                !
 ! D21   D(4,5,6,7)             21.1782         estimate D2E/DX2                !
 ! D22   D(4,5,6,11)          -164.7394         estimate D2E/DX2                !
 ! D23   D(12,5,6,7)          -150.5052         estimate D2E/DX2                !
 ! D24   D(12,5,6,11)           23.5771         estimate D2E/DX2                !
 ! D25   D(4,5,12,13)            4.7169         estimate D2E/DX2                !
 ! D26   D(6,5,12,13)          176.1435         estimate D2E/DX2                !
 ! D27   D(5,6,7,8)            175.8558         estimate D2E/DX2                !
 ! D28   D(5,6,7,36)            -4.1357         estimate D2E/DX2                !
 ! D29   D(11,6,7,8)             1.7557         estimate D2E/DX2                !
 ! D30   D(11,6,7,36)         -178.2358         estimate D2E/DX2                !
 ! D31   D(5,6,11,10)         -175.0057         estimate D2E/DX2                !
 ! D32   D(5,6,11,32)            4.8628         estimate D2E/DX2                !
 ! D33   D(7,6,11,10)           -0.7098         estimate D2E/DX2                !
 ! D34   D(7,6,11,32)          179.1587         estimate D2E/DX2                !
 ! D35   D(6,7,8,9)             -0.7147         estimate D2E/DX2                !
 ! D36   D(6,7,8,35)           179.2223         estimate D2E/DX2                !
 ! D37   D(36,7,8,9)           179.2768         estimate D2E/DX2                !
 ! D38   D(36,7,8,35)           -0.7863         estimate D2E/DX2                !
 ! D39   D(7,8,9,10)            -1.3594         estimate D2E/DX2                !
 ! D40   D(7,8,9,34)           178.7255         estimate D2E/DX2                !
 ! D41   D(35,8,9,10)          178.7036         estimate D2E/DX2                !
 ! D42   D(35,8,9,34)           -1.2115         estimate D2E/DX2                !
 ! D43   D(8,9,10,11)            2.4256         estimate D2E/DX2                !
 ! D44   D(8,9,10,33)         -177.7008         estimate D2E/DX2                !
 ! D45   D(34,9,10,11)        -177.6594         estimate D2E/DX2                !
 ! D46   D(34,9,10,33)           2.2142         estimate D2E/DX2                !
 ! D47   D(9,10,11,6)           -1.3806         estimate D2E/DX2                !
 ! D48   D(9,10,11,32)         178.751          estimate D2E/DX2                !
 ! D49   D(33,10,11,6)         178.7459         estimate D2E/DX2                !
 ! D50   D(33,10,11,32)         -1.1225         estimate D2E/DX2                !
 ! D51   D(5,12,13,14)         145.9925         estimate D2E/DX2                !
 ! D52   D(5,12,13,15)         -64.0568         estimate D2E/DX2                !
 ! D53   D(12,13,14,29)        -60.0386         estimate D2E/DX2                !
 ! D54   D(12,13,14,30)         60.0323         estimate D2E/DX2                !
 ! D55   D(12,13,14,31)        179.9937         estimate D2E/DX2                !
 ! D56   D(15,13,14,29)        152.5863         estimate D2E/DX2                !
 ! D57   D(15,13,14,30)        -87.3428         estimate D2E/DX2                !
 ! D58   D(15,13,14,31)         32.6185         estimate D2E/DX2                !
 ! D59   D(12,13,15,16)         50.9136         estimate D2E/DX2                !
 ! D60   D(12,13,15,20)       -115.3295         estimate D2E/DX2                !
 ! D61   D(14,13,15,16)       -159.3932         estimate D2E/DX2                !
 ! D62   D(14,13,15,20)         34.3637         estimate D2E/DX2                !
 ! D63   D(13,15,16,17)       -170.7287         estimate D2E/DX2                !
 ! D64   D(13,15,16,21)         16.0045         estimate D2E/DX2                !
 ! D65   D(20,15,16,17)         -3.073          estimate D2E/DX2                !
 ! D66   D(20,15,16,21)       -176.3399         estimate D2E/DX2                !
 ! D67   D(13,15,20,19)        169.6903         estimate D2E/DX2                !
 ! D68   D(16,15,20,19)          1.5947         estimate D2E/DX2                !
 ! D69   D(15,16,17,18)       -177.2936         estimate D2E/DX2                !
 ! D70   D(15,16,17,19)          3.3196         estimate D2E/DX2                !
 ! D71   D(21,16,17,18)         -4.4364         estimate D2E/DX2                !
 ! D72   D(21,16,17,19)        176.1768         estimate D2E/DX2                !
 ! D73   D(15,16,21,4)         -45.2704         estimate D2E/DX2                !
 ! D74   D(15,16,21,22)        130.8319         estimate D2E/DX2                !
 ! D75   D(17,16,21,4)         142.8264         estimate D2E/DX2                !
 ! D76   D(17,16,21,22)        -41.0713         estimate D2E/DX2                !
 ! D77   D(16,17,18,26)        -60.0638         estimate D2E/DX2                !
 ! D78   D(16,17,18,27)         59.9471         estimate D2E/DX2                !
 ! D79   D(16,17,18,28)        179.9974         estimate D2E/DX2                !
 ! D80   D(19,17,18,26)        119.2441         estimate D2E/DX2                !
 ! D81   D(19,17,18,27)       -120.745          estimate D2E/DX2                !
 ! D82   D(19,17,18,28)         -0.6947         estimate D2E/DX2                !
 ! D83   D(16,17,19,20)         -2.3064         estimate D2E/DX2                !
 ! D84   D(18,17,19,20)        178.2558         estimate D2E/DX2                !
 ! D85   D(17,19,20,15)          0.4829         estimate D2E/DX2                !
 ! D86   D(4,21,22,23)          -3.9896         estimate D2E/DX2                !
 ! D87   D(4,21,22,25)         175.9957         estimate D2E/DX2                !
 ! D88   D(16,21,22,23)        179.6078         estimate D2E/DX2                !
 ! D89   D(16,21,22,25)         -0.4069         estimate D2E/DX2                !
 ! D90   D(21,22,23,2)           2.91           estimate D2E/DX2                !
 ! D91   D(21,22,23,24)       -177.1659         estimate D2E/DX2                !
 ! D92   D(25,22,23,2)        -177.0753         estimate D2E/DX2                !
 ! D93   D(25,22,23,24)          2.8489         estimate D2E/DX2                !
 --------------------------------------------------------------------------------
 Trust Radius=3.00D-01 FncErr=1.00D-07 GrdErr=1.00D-07
 Number of steps in this run= 209 maximum allowed number of steps= 222.
 GradGradGradGradGradGradGradGradGradGradGradGradGradGradGradGradGradGrad

                          Input orientation:                          
 ---------------------------------------------------------------------
 Center     Atomic     Atomic              Coordinates (Angstroms)
 Number     Number      Type              X           Y           Z
 ---------------------------------------------------------------------
    1         17             0        4.873000   11.059000   -7.976000
    2          6             0        3.283000   10.346000   -8.190000
    3          6             0        2.739000   10.281000   -9.449000
    4          6             0        1.476000    9.687000   -9.606000
    5          6             0        0.904000    9.605000  -10.988000
    6          6             0        1.805000    9.163000  -12.110000
    7          6             0        2.980000    8.428000  -11.881000
    8          6             0        3.751000    7.958000  -12.947000
    9          6             0        3.346000    8.206000  -14.254000
   10          6             0        2.152000    8.901000  -14.477000
   11          6             0        1.401000    9.384000  -13.427000
   12          7             0       -0.366000    9.746000  -11.202000
   13          7             0       -1.367000   10.089000  -10.196000
   14          6             0       -2.503000   10.902000  -10.561000
   15          6             0       -1.482000    9.129000   -9.243000
   16          7             0       -0.489000    8.602000   -8.563000
   17          6             0       -0.959000    7.550000   -7.864000
   18          6             0       -0.250000    6.660000   -6.905000
   19          7             0       -2.238000    7.389000   -8.176000
   20          7             0       -2.605000    8.411000   -9.069000
   21          6             0        0.773000    9.174000   -8.496000
   22          6             0        1.379000    9.334000   -7.235000
   23          6             0        2.630000    9.883000   -7.069000
   24          1             0        3.086000    9.950000   -6.088000
   25          1             0        0.835000    9.010000   -6.354000
   26          1             0        0.586000    6.160000   -7.418000
   27          1             0        0.139000    7.258000   -6.067000
   28          1             0       -0.949000    5.902000   -6.521000
   29          1             0       -2.153000   11.877000  -10.932000
   30          1             0       -3.080000   10.395000  -11.349000
   31          1             0       -3.143000   11.054000   -9.679000
   32          1             0        0.490000    9.937000  -13.625000
   33          1             0        1.813000    9.064000  -15.494000
   34          1             0        3.947000    7.864000  -15.089000
   35          1             0        4.662000    7.403000  -12.756000
   36          1             0        3.292000    8.223000  -10.863000
   37          1             0        3.273000   10.680000  -10.304000
 ---------------------------------------------------------------------
                    Distance matrix (angstroms):
                    1          2          3          4          5
     1  Cl   0.000000
     2  C    1.755638   0.000000
     3  C    2.707207   1.373041   0.000000
     4  C    4.009849   2.388428   1.404512   0.000000
     5  C    5.190301   3.746669   2.488518   1.497943   0.000000
     6  C    5.486109   4.353203   3.033678   2.579309   1.505340
     7  C    5.074902   4.170613   3.066971   3.003785   2.548049
     8  C    5.965394   5.343278   4.319314   4.396288   3.828276
     9  C    7.062905   6.430837   5.268975   5.224382   4.311302
    10  C    7.370469   6.549317   5.246880   4.980102   3.771769
    11  C    6.676362   5.647436   4.291776   3.833729   2.498914
    12  N    6.291118   4.769418   3.605587   2.437962   1.295599
    13  N    6.693796   5.070758   4.177812   2.931272   2.453357
    14  C    7.817432   6.277625   5.394511   4.268570   3.670448
    15  C    6.761377   5.029426   4.380226   3.031979   2.994094
    16  N    5.927264   4.172367   3.744866   2.475136   2.971041
    17  C    6.807191   5.091017   4.862694   3.678391   4.177699
    18  C    6.836912   5.264970   5.340196   4.408765   5.164846
    19  N    8.004700   6.263025   5.895314   4.595596   4.763419
    20  N    8.007936   6.259825   5.674472   4.309421   4.173880
    21  C    4.542425   2.786991   2.449248   1.410489   2.532387
    22  C    3.966452   2.358259   2.765539   2.399095   3.792634
    23  C    2.690107   1.377468   2.415509   2.794012   4.291261
    24  H    2.826269   2.148029   3.395039   3.877834   5.374956
    25  H    4.809857   3.338936   3.849634   3.383004   4.672552
    26  H    6.533753   5.039086   5.073757   4.244900   4.971323
    27  H    6.364168   4.891586   5.228427   4.495790   5.505440
    28  H    7.912481   6.359601   6.430410   5.451979   6.090969
    29  H    7.666273   6.277947   5.355200   4.441173   3.809248
    30  H    8.664193   7.104185   6.122398   4.929143   4.077582
    31  H    8.194906   6.634144   5.937032   4.817591   4.493472
    32  H    7.237456   6.124325   4.755556   4.145728   2.689868
    33  H    8.358466   7.559950   6.235430   5.930450   4.628498
    34  H    7.852405   7.361890   6.253859   6.284303   5.395288
    35  H    6.021566   5.604574   4.787177   5.028892   4.700765
    36  H    4.344793   3.413523   2.557454   2.649755   2.761900
    37  H    2.850127   2.140246   1.084150   2.168516   2.689915
                    6          7          8          9         10
     6  C    0.000000
     7  C    1.404739   0.000000
     8  C    2.437111   1.397031   0.000000
     9  C    2.808428   2.411300   1.390603   0.000000
    10  C    2.406604   2.765597   2.405608   1.399425   0.000000
    11  C    1.395187   2.407757   2.790408   2.419636   1.378329
    12  N    2.424375   3.659765   4.815772   5.046310   4.216631
    13  N    3.818698   4.949197   6.188949   6.498109   5.667598
    14  C    4.897181   6.158439   7.312499   7.424114   6.403755
    15  C    4.361790   5.230668   6.517296   7.019376   6.375947
    16  N    4.261263   4.803474   6.132845   6.873974   6.483801
    17  C    5.316952   5.694110   6.941718   7.732752   7.432045
    18  C    6.130258   6.190258   7.361968   8.326412   8.253900
    19  N    5.913483   6.483369   7.678172   8.294012   7.826931
    20  N    5.409370   6.252988   7.459412   7.895610   7.219114
    21  C    3.758476   4.109208   5.491679   6.380589   6.143983
    22  C    4.896564   4.996934   6.336143   7.376167   7.295998
    23  C    5.158557   5.039332   6.285949   7.412773   7.488075
    24  H    6.206836   5.990540   7.173296   8.354202   8.505767
    25  H    5.839165   5.957137   7.285424   8.328357   8.229793
    26  H    5.702529   5.549183   6.619658   7.650792   7.732717
    27  H    6.551521   6.575924   7.801983   8.843671   8.802256
    28  H    7.032465   7.109664   8.222567   9.140828   9.050311
    29  H    4.941583   6.256508   7.367225   7.399387   6.321125
    30  H    5.095112   6.393412   7.426650   7.384052   6.276165
    31  H    5.828237   7.016823   8.233607   8.434978   7.462790
    32  H    2.150239   3.393924   3.874306   3.398343   2.135754
    33  H    3.385457   3.849695   3.386191   2.150315   1.084333
    34  H    3.892301   3.397712   2.153002   1.084154   2.161467
    35  H    3.417216   2.155313   1.083710   2.149574   3.392041
    36  H    2.156334   1.084294   2.150340   3.391473   3.849712
    37  H    2.778120   2.764829   3.824032   4.661384   4.672838
                   11         12         13         14         15
    11  C    0.000000
    12  N    2.864255   0.000000
    13  N    4.312564   1.460029   0.000000
    14  C    5.075381   2.512765   1.443846   0.000000
    15  C    5.087492   2.337483   1.357584   2.433741   0.000000
    16  N    5.276563   2.878921   2.376708   3.652150   1.313841
    17  C    6.315071   4.039345   3.471485   4.570957   2.160651
    18  C    7.258268   5.291603   4.882255   6.036299   3.616632
    19  N    6.692933   4.268080   3.482677   4.254365   2.176609
    20  N    5.998911   3.368239   2.370328   2.905434   1.344221
    21  C    4.975263   2.991144   2.882156   4.240564   2.375933
    22  C    6.192241   4.353373   4.108292   5.347039   3.501344
    23  C    6.494891   5.106513   5.079033   6.291273   4.712042
    24  H    7.551192   6.173404   6.060049   7.221562   5.612013
    25  H    7.105460   5.048485   4.557851   5.693923   3.705263
    26  H    6.867786   5.299468   5.193124   6.473557   4.052433
    27  H    7.764156   5.728298   5.227929   6.360419   4.026817
    28  H    8.083295   6.085063   5.586709   6.613359   4.255221
    29  H    5.007094   2.794178   2.087208   1.100348   3.294612
    30  H    5.041782   2.794388   2.087442   1.100419   2.931142
    31  H    6.122446   3.426678   2.086310   1.100285   2.579659
    32  H    1.083944   2.576848   3.902511   4.390600   4.872738
    33  H    2.131814   4.861525   6.263532   6.807392   7.066559
    34  H    3.399229   6.103496   7.558483   8.445989   8.077746
    35  H    3.874109   5.760673   7.079339   8.270324   7.284846
    36  H    3.390855   3.976860   5.062917   6.391422   5.122139
    37  H    3.864858   3.862782   4.678733   5.785975   5.112861
                   16         17         18         19         20
    16  N    0.000000
    17  C    1.347667   0.000000
    18  C    2.564654   1.488107   0.000000
    19  N    2.163363   1.326313   2.469621   0.000000
    20  N    2.184027   2.214196   3.646220   1.405924   0.000000
    21  C    1.387198   2.456954   3.146110   3.514932   3.510183
    22  C    2.405999   3.007414   3.148463   4.213217   4.481935
    23  C    3.687975   4.353830   4.325393   5.580583   5.794136
    24  H    4.552291   5.027544   4.756100   6.266055   6.606237
    25  H    2.607512   2.762270   2.646380   3.923092   4.423079
    26  H    2.903449   2.125568   1.100938   3.171747   4.239727
    27  H    2.903573   2.126047   1.100531   3.180436   4.227405
    28  H    3.416338   2.125948   1.100282   2.571326   3.940777
    29  H    4.371119   5.437020   6.859681   5.267343   3.960837
    30  H    4.205939   4.973720   6.458193   4.451172   3.059458
    31  H    3.781729   4.510221   5.947416   4.063282   2.765320
    32  H    5.325834   6.402069   7.512971   6.604990   5.715316
    33  H    7.317883   8.257910   9.154567   8.530495   7.824689
    34  H    7.925365   8.738882   9.275898   9.288133   8.914500
    35  H    6.749196   7.453114   7.675545   8.281702   8.210927
    36  H    4.441802   5.245754   5.536650   6.204549   6.166716
    37  H    4.637004   5.801752   6.334440   6.762410   6.420628
                   21         22         23         24         25
    21  C    0.000000
    22  C    1.408175   0.000000
    23  C    2.446928   1.376211   0.000000
    24  H    3.427916   2.146838   1.083875   0.000000
    25  H    2.149164   1.084930   2.120231   2.453845   0.000000
    26  H    3.206439   3.276677   4.261510   4.731068   3.052310
    27  H    3.158014   2.685442   3.754958   3.991505   1.906906
    28  H    4.191884   4.208088   5.381255   5.731930   3.587507
    29  H    4.669238   5.710489   6.463427   7.390858   6.172999
    30  H    4.947328   6.159009   7.154344   8.117617   6.495804
    31  H    4.502105   5.420334   6.442893   7.274238   5.572975
    32  H    5.193159   6.479663   6.896641   7.971559   7.337969
    33  H    7.075712   8.274801   8.504051   9.533014   9.192334
    34  H    7.433574   8.392904   8.374440   9.279586   9.343344
    35  H    6.033934   6.707331   6.528506   7.309802   7.629809
    36  H    3.585032   4.249267   4.193838   5.081888   5.194930
    37  H    3.433205   3.849378   3.393211   4.282817   4.933077
                   26         27         28         29         30
    26  H    0.000000
    27  H    1.797391   0.000000
    28  H    1.796496   1.796829   0.000000
    29  H    7.248062   7.089192   7.523773   0.000000
    30  H    6.843065   6.935579   6.930930   1.797093   0.000000
    31  H    6.555059   6.182854   6.428818   1.796507   1.796427
    32  H    7.266484   8.026432   8.295707   4.242794   4.258502
    33  H    8.669517   9.743318   9.906645   6.667381   6.549354
    34  H    8.546589   9.811452  10.061356   8.402072   8.352981
    35  H    6.830305   8.075969   8.521241   8.353914   8.418449
    36  H    4.842151   5.820159   6.498160   6.557782   6.749531
    37  H    5.998280   6.283646   7.413883   5.591840   6.444677
                   31         32         33         34         35
    31  H    0.000000
    32  H    5.478804   0.000000
    33  H    7.895332   2.450636   0.000000
    34  H    9.471658   4.288528   2.481528   0.000000
    35  H    9.149631   4.958014   4.286300   2.483271   0.000000
    36  H    7.129210   4.291578   4.933648   4.291501   2.476439
    37  H    6.457210   4.396155   5.628424   5.592884   4.322078
                   36         37
    36  H    0.000000
    37  H    2.519859   0.000000
 Stoichiometry    C17H14ClN5
 Framework group  C1[X(C17H14ClN5)]
 Deg. of freedom   105
 Full point group                 C1
 Largest Abelian subgroup         C1      NOp   1
 Largest concise Abelian subgroup C1      NOp   1
                         Standard orientation:                         
 ---------------------------------------------------------------------
 Center     Atomic     Atomic              Coordinates (Angstroms)
 Number     Number      Type              X           Y           Z
 ---------------------------------------------------------------------
    1         17             0        1.778913    4.148062   -0.832861
    2          6             0        0.651100    2.844352   -0.500233
    3          6             0        1.065900    1.543319   -0.643405
    4          6             0        0.158195    0.512084   -0.351376
    5          6             0        0.630961   -0.902255   -0.492688
    6          6             0        1.986041   -1.261661    0.055613
    7          6             0        2.622156   -0.491345    1.043166
    8          6             0        3.840344   -0.896272    1.594302
    9          6             0        4.427527   -2.084472    1.173378
   10          6             0        3.768550   -2.870089    0.221041
   11          6             0        2.577314   -2.462003   -0.339508
   12          7             0       -0.156679   -1.837233   -0.921660
   13          7             0       -1.521772   -1.647347   -1.403479
   14          6             0       -2.030167   -2.479880   -2.467957
   15          6             0       -2.348355   -1.192119   -0.427486
   16          7             0       -2.119227   -0.157656    0.349408
   17          6             0       -3.054063   -0.135158    1.319861
   18          6             0       -3.263011    0.858519    2.407706
   19          7             0       -3.820077   -1.208309    1.176072
   20          7             0       -3.384219   -1.910749    0.038870
   21          6             0       -1.155747    0.801111    0.072294
   22          6             0       -1.514371    2.161333    0.136638
   23          6             0       -0.626888    3.182963   -0.113571
   24          1             0       -0.924238    4.220187   -0.010932
   25          1             0       -2.536909    2.415783    0.394989
   26          1             0       -2.363463    0.903795    3.040817
   27          1             0       -3.452802    1.849759    1.968852
   28          1             0       -4.126126    0.557403    3.020065
   29          1             0       -1.409392   -2.347018   -3.366708
   30          1             0       -2.002272   -3.534540   -2.155168
   31          1             0       -3.067934   -2.192392   -2.693827
   32          1             0        2.095549   -3.077884   -1.090192
   33          1             0        4.204108   -3.815565   -0.082510
   34          1             0        5.382682   -2.398395    1.578988
   35          1             0        4.326471   -0.286036    2.346445
   36          1             0        2.160830    0.429636    1.381789
   37          1             0        2.072869    1.316707   -0.975129
 ---------------------------------------------------------------------
 Rotational constants (GHZ):      0.2659806      0.2183072      0.1464966
 Standard basis: 6-31G(d) (6D, 7F)
 There are   377 symmetry adapted basis functions of A   symmetry.
 Integral buffers will be    131072 words long.
 Raffenetti 1 integral format.
 Two-electron integral symmetry is turned on.
   377 basis functions,   724 primitive gaussians,   377 cartesian basis functions
    84 alpha electrons       84 beta electrons
       nuclear repulsion energy      1975.3166465387 Hartrees.
 NAtoms=   37 NActive=   37 NUniq=   37 SFac= 7.50D-01 NAtFMM=   80 NAOKFM=F Big=F
 One-electron integrals computed using PRISM.
 NBasis=   377 RedAO= T  NBF=   377
 NBsUse=   377 1.00D-06 NBFU=   377
 Harris functional with IExCor=  205 diagonalized for initial guess.
 ExpMin= 1.43D-01 ExpMax= 2.52D+04 ExpMxC= 3.78D+03 IAcc=1 IRadAn=         1 AccDes= 1.00D-06
 HarFok:  IExCor= 205 AccDes= 1.00D-06 IRadAn=         1 IDoV=1
 ScaDFX=  1.000000  1.000000  1.000000  1.000000
 Initial guess orbital symmetries:
       Occupied  (A) (A) (A) (A) (A) (A) (A) (A) (A) (A) (A) (A)
                 (A) (A) (A) (A) (A) (A) (A) (A) (A) (A) (A) (A)
                 (A) (A) (A) (A) (A) (A) (A) (A) (A) (A) (A) (A)
                 (A) (A) (A) (A) (A) (A) (A) (A) (A) (A) (A) (A)
                 (A) (A) (A) (A) (A) (A) (A) (A) (A) (A) (A) (A)
                 (A) (A) (A) (A) (A) (A) (A) (A) (A) (A) (A) (A)
                 (A) (A) (A) (A) (A) (A) (A) (A) (A) (A) (A) (A)
       Virtual   (A) (A) (A) (A) (A) (A) (A) (A) (A) (A) (A) (A)
                 (A) (A) (A) (A) (A) (A) (A) (A) (A) (A) (A) (A)
                 (A) (A) (A) (A) (A) (A) (A) (A) (A) (A) (A) (A)
                 (A) (A) (A) (A) (A) (A) (A) (A) (A) (A) (A) (A)
                 (A) (A) (A) (A) (A) (A) (A) (A) (A) (A) (A) (A)
                 (A) (A) (A) (A) (A) (A) (A) (A) (A) (A) (A) (A)
                 (A) (A) (A) (A) (A) (A) (A) (A) (A) (A) (A) (A)
                 (A) (A) (A) (A) (A) (A) (A) (A) (A) (A) (A) (A)
                 (A) (A) (A) (A) (A) (A) (A) (A) (A) (A) (A) (A)
                 (A) (A) (A) (A) (A) (A) (A) (A) (A) (A) (A) (A)
                 (A) (A) (A) (A) (A) (A) (A) (A) (A) (A) (A) (A)
                 (A) (A) (A) (A) (A) (A) (A) (A) (A) (A) (A) (A)
                 (A) (A) (A) (A) (A) (A) (A) (A) (A) (A) (A) (A)
                 (A) (A) (A) (A) (A) (A) (A) (A) (A) (A) (A) (A)
                 (A) (A) (A) (A) (A) (A) (A) (A) (A) (A) (A) (A)
                 (A) (A) (A) (A) (A) (A) (A) (A) (A) (A) (A) (A)
                 (A) (A) (A) (A) (A) (A) (A) (A) (A) (A) (A) (A)
                 (A) (A) (A) (A) (A) (A) (A) (A) (A) (A) (A) (A)
                 (A) (A) (A) (A) (A) (A) (A) (A) (A) (A) (A) (A)
                 (A) (A) (A) (A) (A) (A) (A) (A) (A) (A) (A) (A)
                 (A) (A) (A) (A) (A) (A) (A) (A) (A) (A) (A) (A)
                 (A) (A) (A) (A) (A) (A) (A) (A) (A) (A) (A) (A)
                 (A) (A) (A) (A) (A) (A) (A) (A) (A) (A) (A) (A)
                 (A) (A) (A) (A) (A) (A) (A) (A) (A) (A) (A) (A)
                 (A) (A) (A) (A) (A)
 The electronic state of the initial guess is 1-A.
 Requested convergence on RMS density matrix=1.00D-08 within 128 cycles.
 Requested convergence on MAX density matrix=1.00D-06.
 Requested convergence on             energy=1.00D-06.
 No special actions if energy rises.
 Integral accuracy reduced to 1.0D-05 until final iterations.
 Initial convergence to 1.0D-05 achieved.  Increase integral accuracy.
 SCF Done:  E(RHF) =  -1383.53347890     A.U. after   16 cycles
             Convg  =    0.6711D-08             -V/T =  2.0015
             S**2   =   0.0000

 **********************************************************************

            Population analysis using the SCF density.

 **********************************************************************

 Orbital symmetries:
 BldTbl:  Degeneracy threshold= 1.00D-02
       Occupied  (A) (A) (A) (A) (A) (A) (A) (A) (A) (A) (A) (A)
                 (A) (A) (A) (A) (A) (A) (A) (A) (A) (A) (A) (A)
                 (A) (A) (A) (A) (A) (A) (A) (A) (A) (A) (A) (A)
                 (A) (A) (A) (A) (A) (A) (A) (A) (A) (A) (A) (A)
                 (A) (A) (A) (A) (A) (A) (A) (A) (A) (A) (A) (A)
                 (A) (A) (A) (A) (A) (A) (A) (A) (A) (A) (A) (A)
                 (A) (A) (A) (A) (A) (A) (A) (A) (A) (A) (A) (A)
       Virtual   (A) (A) (A) (A) (A) (A) (A) (A) (A) (A) (A) (A)
                 (A) (A) (A) (A) (A) (A) (A) (A) (A) (A) (A) (A)
                 (A) (A) (A) (A) (A) (A) (A) (A) (A) (A) (A) (A)
                 (A) (A) (A) (A) (A) (A) (A) (A) (A) (A) (A) (A)
                 (A) (A) (A) (A) (A) (A) (A) (A) (A) (A) (A) (A)
                 (A) (A) (A) (A) (A) (A) (A) (A) (A) (A) (A) (A)
                 (A) (A) (A) (A) (A) (A) (A) (A) (A) (A) (A) (A)
                 (A) (A) (A) (A) (A) (A) (A) (A) (A) (A) (A) (A)
                 (A) (A) (A) (A) (A) (A) (A) (A) (A) (A) (A) (A)
                 (A) (A) (A) (A) (A) (A) (A) (A) (A) (A) (A) (A)
                 (A) (A) (A) (A) (A) (A) (A) (A) (A) (A) (A) (A)
                 (A) (A) (A) (A) (A) (A) (A) (A) (A) (A) (A) (A)
                 (A) (A) (A) (A) (A) (A) (A) (A) (A) (A) (A) (A)
                 (A) (A) (A) (A) (A) (A) (A) (A) (A) (A) (A) (A)
                 (A) (A) (A) (A) (A) (A) (A) (A) (A) (A) (A) (A)
                 (A) (A) (A) (A) (A) (A) (A) (A) (A) (A) (A) (A)
                 (A) (A) (A) (A) (A) (A) (A) (A) (A) (A) (A) (A)
                 (A) (A) (A) (A) (A) (A) (A) (A) (A) (A) (A) (A)
                 (A) (A) (A) (A) (A) (A) (A) (A) (A) (A) (A) (A)
                 (A) (A) (A) (A) (A) (A) (A) (A) (A) (A) (A) (A)
                 (A) (A) (A) (A) (A) (A) (A) (A) (A) (A) (A) (A)
                 (A) (A) (A) (A) (A) (A) (A) (A) (A) (A) (A) (A)
                 (A) (A) (A) (A) (A) (A) (A) (A) (A) (A) (A) (A)
                 (A) (A) (A) (A) (A) (A) (A) (A) (A) (A) (A) (A)
                 (A) (A) (A) (A) (A)
 The electronic state is 1-A.
 Alpha  occ. eigenvalues -- -104.84216 -15.65216 -15.61849 -15.61700 -15.57457
 Alpha  occ. eigenvalues --  -15.56468 -11.33458 -11.32738 -11.32712 -11.32351
 Alpha  occ. eigenvalues --  -11.30514 -11.29109 -11.28075 -11.27891 -11.27738
 Alpha  occ. eigenvalues --  -11.26564 -11.26431 -11.25731 -11.25278 -11.25263
 Alpha  occ. eigenvalues --  -11.24968 -11.24726 -11.24493 -10.57542  -8.04478
 Alpha  occ. eigenvalues --   -8.04145  -8.04141  -1.42394  -1.31584  -1.25597
 Alpha  occ. eigenvalues --   -1.21242  -1.19149  -1.15586  -1.13011  -1.09582
 Alpha  occ. eigenvalues --   -1.06504  -1.03459  -1.02765  -1.02508  -0.97979
 Alpha  occ. eigenvalues --   -0.94083  -0.91660  -0.88375  -0.85455  -0.84152
 Alpha  occ. eigenvalues --   -0.83016  -0.80022  -0.79090  -0.72795  -0.71389
 Alpha  occ. eigenvalues --   -0.70165  -0.68987  -0.67223  -0.66613  -0.65166
 Alpha  occ. eigenvalues --   -0.64637  -0.63402  -0.62707  -0.61389  -0.60470
 Alpha  occ. eigenvalues --   -0.59995  -0.58731  -0.58699  -0.57133  -0.56595
 Alpha  occ. eigenvalues --   -0.56260  -0.55102  -0.54075  -0.53285  -0.51728
 Alpha  occ. eigenvalues --   -0.50532  -0.49614  -0.48718  -0.47248  -0.46551
 Alpha  occ. eigenvalues --   -0.44751  -0.43066  -0.41795  -0.40399  -0.37340
 Alpha  occ. eigenvalues --   -0.34859  -0.34337  -0.33669  -0.30013
 Alpha virt. eigenvalues --    0.06258   0.09387   0.10624   0.13431   0.17559
 Alpha virt. eigenvalues --    0.18719   0.20762   0.21072   0.22978   0.23134
 Alpha virt. eigenvalues --    0.26491   0.26897   0.28110   0.28407   0.28605
 Alpha virt. eigenvalues --    0.29553   0.29977   0.30028   0.31826   0.32065
 Alpha virt. eigenvalues --    0.32635   0.33232   0.33740   0.36836   0.37367
 Alpha virt. eigenvalues --    0.37443   0.39264   0.39479   0.41594   0.43076
 Alpha virt. eigenvalues --    0.44468   0.44984   0.45488   0.46198   0.46841
 Alpha virt. eigenvalues --    0.47074   0.48915   0.50086   0.52564   0.53422
 Alpha virt. eigenvalues --    0.54395   0.55593   0.58123   0.59107   0.60406
 Alpha virt. eigenvalues --    0.61981   0.62311   0.63668   0.66294   0.66844
 Alpha virt. eigenvalues --    0.67617   0.69772   0.71466   0.71484   0.73109
 Alpha virt. eigenvalues --    0.73429   0.74269   0.74609   0.75053   0.75599
 Alpha virt. eigenvalues --    0.75893   0.76278   0.77403   0.78525   0.79114
 Alpha virt. eigenvalues --    0.79791   0.80203   0.81195   0.81322   0.82435
 Alpha virt. eigenvalues --    0.82718   0.82982   0.83674   0.83848   0.84771
 Alpha virt. eigenvalues --    0.85197   0.86839   0.87032   0.87996   0.89896
 Alpha virt. eigenvalues --    0.91299   0.91785   0.92384   0.93686   0.94028
 Alpha virt. eigenvalues --    0.96165   0.96999   0.98195   0.99302   1.00705
 Alpha virt. eigenvalues --    1.01779   1.02790   1.03248   1.03980   1.04799
 Alpha virt. eigenvalues --    1.05620   1.06706   1.07415   1.08459   1.08891
 Alpha virt. eigenvalues --    1.09661   1.10064   1.10668   1.11474   1.11549
 Alpha virt. eigenvalues --    1.11909   1.12843   1.13069   1.13927   1.14588
 Alpha virt. eigenvalues --    1.15226   1.15839   1.16287   1.17602   1.18138
 Alpha virt. eigenvalues --    1.18506   1.19363   1.19854   1.20989   1.21353
 Alpha virt. eigenvalues --    1.21467   1.22676   1.23087   1.23275   1.24136
 Alpha virt. eigenvalues --    1.25757   1.26051   1.28693   1.29687   1.31516
 Alpha virt. eigenvalues --    1.32428   1.34141   1.35912   1.36574   1.39127
 Alpha virt. eigenvalues --    1.40303   1.41483   1.43455   1.43924   1.45124
 Alpha virt. eigenvalues --    1.47531   1.48496   1.49354   1.50510   1.52040
 Alpha virt. eigenvalues --    1.53883   1.54654   1.55911   1.58344   1.59170
 Alpha virt. eigenvalues --    1.60899   1.62522   1.65706   1.66579   1.67785
 Alpha virt. eigenvalues --    1.68258   1.68899   1.70908   1.71560   1.71642
 Alpha virt. eigenvalues --    1.73388   1.75325   1.76105   1.76773   1.77462
 Alpha virt. eigenvalues --    1.78254   1.79600   1.81975   1.82399   1.83385
 Alpha virt. eigenvalues --    1.86293   1.88228   1.91063   1.96022   1.96668
 Alpha virt. eigenvalues --    2.00151   2.02423   2.03591   2.06035   2.06835
 Alpha virt. eigenvalues --    2.08105   2.10220   2.10855   2.11475   2.14048
 Alpha virt. eigenvalues --    2.15351   2.16420   2.17595   2.19238   2.21752
 Alpha virt. eigenvalues --    2.22529   2.23978   2.24517   2.26056   2.27470
 Alpha virt. eigenvalues --    2.27610   2.30508   2.31206   2.33267   2.35412
 Alpha virt. eigenvalues --    2.35553   2.36898   2.38811   2.39066   2.41249
 Alpha virt. eigenvalues --    2.42597   2.43411   2.45039   2.45711   2.46301
 Alpha virt. eigenvalues --    2.46910   2.47404   2.49354   2.51071   2.52320
 Alpha virt. eigenvalues --    2.54562   2.55654   2.57318   2.58386   2.59843
 Alpha virt. eigenvalues --    2.60343   2.61068   2.61500   2.62299   2.62464
 Alpha virt. eigenvalues --    2.63441   2.64263   2.65549   2.70613   2.72246
 Alpha virt. eigenvalues --    2.74874   2.78651   2.80080   2.80209   2.81568
 Alpha virt. eigenvalues --    2.84329   2.86194   2.90444   2.91630   2.92212
 Alpha virt. eigenvalues --    2.93370   2.94580   2.96224   2.98473   2.98738
 Alpha virt. eigenvalues --    3.00014   3.02941   3.06083   3.06558   3.07070
 Alpha virt. eigenvalues --    3.09331   3.10947   3.11703   3.11983   3.14008
 Alpha virt. eigenvalues --    3.16253   3.18255   3.22458   3.23827   3.26009
 Alpha virt. eigenvalues --    3.29758   3.32030   3.37805   3.46310   3.53098
 Alpha virt. eigenvalues --    3.55434   3.63147   3.73322   3.78704   3.81986
 Alpha virt. eigenvalues --    4.18075   4.43874   4.47305   4.50485   4.51658
 Alpha virt. eigenvalues --    4.52693   4.53075   4.53745   4.57801   4.59519
 Alpha virt. eigenvalues --    4.62394   4.65194   4.70453   4.71252   4.74861
 Alpha virt. eigenvalues --    4.76519   4.81453   4.82663   4.86124   4.89459
 Alpha virt. eigenvalues --    5.01464   5.11248   5.20344
          Condensed to atoms (all electrons):
              1          2          3          4          5          6
     1  Cl  16.904079   0.221736  -0.067525   0.002912  -0.000045  -0.000021
     2  C    0.221736   5.035511   0.519376  -0.040846   0.001181   0.000444
     3  C   -0.067525   0.519376   5.019836   0.493297  -0.034018  -0.004047
     4  C    0.002912  -0.040846   0.493297   5.002950   0.324344  -0.071677
     5  C   -0.000045   0.001181  -0.034018   0.324344   4.567465   0.386017
     6  C   -0.000021   0.000444  -0.004047  -0.071677   0.386017   4.865470
     7  C    0.000037  -0.000488  -0.009778  -0.009407  -0.041226   0.556365
     8  C    0.000003  -0.000020  -0.000040   0.000186   0.002744  -0.038065
     9  C    0.000000   0.000000   0.000000   0.000006   0.000060  -0.028214
    10  C    0.000000   0.000000  -0.000007  -0.000117   0.002898  -0.040389
    11  C    0.000000   0.000009  -0.000151   0.007231  -0.038313   0.536806
    12  N    0.000001  -0.000169   0.004039  -0.083994   0.597512  -0.080122
    13  N    0.000000   0.000016  -0.000167  -0.008528  -0.068863   0.004172
    14  C    0.000000   0.000000   0.000013  -0.000124   0.001208  -0.000017
    15  C    0.000000   0.000025  -0.000077   0.000739   0.007309  -0.000512
    16  N    0.000002  -0.000538   0.005490  -0.046435  -0.013466  -0.000059
    17  C    0.000000   0.000014  -0.000033   0.001125  -0.000005   0.000000
    18  C    0.000000  -0.000010  -0.000003  -0.000157   0.000003   0.000000
    19  N    0.000000   0.000000   0.000000  -0.000259  -0.000052   0.000000
    20  N    0.000000   0.000000  -0.000001   0.000136   0.000331   0.000002
    21  C    0.000246  -0.029271  -0.027223   0.580440  -0.037022   0.002436
    22  C    0.003422  -0.040497  -0.043882  -0.041024   0.004617  -0.000127
    23  C   -0.068995   0.522844  -0.045736  -0.029427   0.000052   0.000015
    24  H   -0.000423  -0.026228   0.001948   0.000254   0.000004   0.000000
    25  H   -0.000098   0.002356   0.000373   0.002206  -0.000085   0.000001
    26  H    0.000000   0.000001  -0.000006   0.000066   0.000001   0.000001
    27  H    0.000000  -0.000008   0.000005  -0.000093   0.000000   0.000000
    28  H    0.000000   0.000000   0.000000   0.000004   0.000000   0.000000
    29  H    0.000000   0.000000  -0.000002  -0.000027   0.000303  -0.000012
    30  H    0.000000   0.000000   0.000000   0.000023   0.000107  -0.000015
    31  H    0.000000   0.000000   0.000000   0.000007  -0.000063   0.000000
    32  H    0.000000   0.000000  -0.000021   0.000358  -0.002979  -0.028549
    33  H    0.000000   0.000000   0.000000   0.000001  -0.000095   0.001954
    34  H    0.000000   0.000000   0.000000   0.000000   0.000005   0.000252
    35  H    0.000000   0.000000  -0.000007   0.000003  -0.000089   0.001621
    36  H    0.000010   0.000280   0.001024   0.003649  -0.003957  -0.031622
    37  H    0.000080  -0.022780   0.375160  -0.027571  -0.001367   0.004881
              7          8          9         10         11         12
     1  Cl   0.000037   0.000003   0.000000   0.000000   0.000000   0.000001
     2  C   -0.000488  -0.000020   0.000000   0.000000   0.000009  -0.000169
     3  C   -0.009778  -0.000040   0.000000  -0.000007  -0.000151   0.004039
     4  C   -0.009407   0.000186   0.000006  -0.000117   0.007231  -0.083994
     5  C   -0.041226   0.002744   0.000060   0.002898  -0.038313   0.597512
     6  C    0.556365  -0.038065  -0.028214  -0.040389   0.536806  -0.080122
     7  C    4.953242   0.538529  -0.046785  -0.036273  -0.046735   0.001629
     8  C    0.538529   4.894686   0.554430  -0.043427  -0.034283  -0.000051
     9  C   -0.046785   0.554430   4.885287   0.539280  -0.042561   0.000012
    10  C   -0.036273  -0.043427   0.539280   4.919184   0.541216   0.000321
    11  C   -0.046735  -0.034283  -0.042561   0.541216   4.899976  -0.004124
    12  N    0.001629  -0.000051   0.000012   0.000321  -0.004124   6.844433
    13  N   -0.000005   0.000000   0.000000   0.000003  -0.000133   0.178000
    14  C    0.000001   0.000000   0.000000   0.000000  -0.000018  -0.038123
    15  C   -0.000039   0.000000   0.000000   0.000000   0.000056  -0.060149
    16  N   -0.000036   0.000000   0.000000   0.000000   0.000006  -0.002035
    17  C    0.000001   0.000000   0.000000   0.000000   0.000000   0.000502
    18  C    0.000000   0.000000   0.000000   0.000000   0.000000   0.000002
    19  N    0.000000   0.000000   0.000000   0.000000   0.000000  -0.000156
    20  N    0.000000   0.000000   0.000000   0.000000   0.000000   0.000705
    21  C    0.000114  -0.000001   0.000000   0.000001  -0.000038  -0.011268
    22  C    0.000030   0.000000   0.000000   0.000000   0.000001  -0.000039
    23  C    0.000009  -0.000001   0.000000   0.000000   0.000000   0.000019
    24  H    0.000000   0.000000   0.000000   0.000000   0.000000   0.000000
    25  H    0.000000   0.000000   0.000000   0.000000   0.000000   0.000002
    26  H    0.000000   0.000000   0.000000   0.000000   0.000000  -0.000004
    27  H    0.000000   0.000000   0.000000   0.000000   0.000000   0.000001
    28  H    0.000000   0.000000   0.000000   0.000000   0.000000   0.000000
    29  H    0.000000   0.000000   0.000000   0.000000  -0.000002  -0.001094
    30  H    0.000000   0.000000   0.000000   0.000000  -0.000003   0.004339
    31  H    0.000000   0.000000   0.000000   0.000000   0.000000   0.002678
    32  H    0.002590   0.000040   0.002357  -0.030533   0.379572   0.007517
    33  H    0.000252   0.002538  -0.030376   0.382848  -0.028645  -0.000008
    34  H    0.002586  -0.029394   0.381457  -0.028594   0.002093   0.000000
    35  H   -0.028858   0.382556  -0.028509   0.002377   0.000298   0.000000
    36  H    0.376172  -0.025164   0.002262   0.000084   0.002864  -0.000072
    37  H    0.002233   0.000082  -0.000021  -0.000030  -0.000055   0.000101
             13         14         15         16         17         18
     1  Cl   0.000000   0.000000   0.000000   0.000002   0.000000   0.000000
     2  C    0.000016   0.000000   0.000025  -0.000538   0.000014  -0.000010
     3  C   -0.000167   0.000013  -0.000077   0.005490  -0.000033  -0.000003
     4  C   -0.008528  -0.000124   0.000739  -0.046435   0.001125  -0.000157
     5  C   -0.068863   0.001208   0.007309  -0.013466  -0.000005   0.000003
     6  C    0.004172  -0.000017  -0.000512  -0.000059   0.000000   0.000000
     7  C   -0.000005   0.000001  -0.000039  -0.000036   0.000001   0.000000
     8  C    0.000000   0.000000   0.000000   0.000000   0.000000   0.000000
     9  C    0.000000   0.000000   0.000000   0.000000   0.000000   0.000000
    10  C    0.000003   0.000000   0.000000   0.000000   0.000000   0.000000
    11  C   -0.000133  -0.000018   0.000056   0.000006   0.000000   0.000000
    12  N    0.178000  -0.038123  -0.060149  -0.002035   0.000502   0.000002
    13  N    7.169877   0.233287   0.297858  -0.062781  -0.001018  -0.000062
    14  C    0.233287   4.921214  -0.043405   0.002416   0.000140   0.000001
    15  C    0.297858  -0.043405   4.323848   0.356980  -0.091302   0.002776
    16  N   -0.062781   0.002416   0.356980   7.333826   0.335483  -0.051289
    17  C   -0.001018   0.000140  -0.091302   0.335483   4.649492   0.343469
    18  C   -0.000062   0.000001   0.002776  -0.051289   0.343469   5.125995
    19  N    0.007636  -0.000189  -0.111514  -0.076615   0.521862  -0.045171
    20  N   -0.092157  -0.001639   0.498213  -0.093385  -0.116083   0.004057
    21  C    0.007831  -0.000067  -0.023712   0.172331  -0.029360  -0.000548
    22  C    0.000184   0.000010   0.002156  -0.070003  -0.000919  -0.008314
    23  C   -0.000024   0.000000  -0.000057   0.005124  -0.000031   0.000216
    24  H    0.000000   0.000000   0.000000  -0.000069  -0.000005   0.000008
    25  H   -0.000002   0.000000   0.000046  -0.002435   0.002129  -0.004005
    26  H   -0.000003   0.000000   0.000066  -0.000132  -0.046696   0.386976
    27  H   -0.000002   0.000000   0.000071  -0.000371  -0.049295   0.388697
    28  H    0.000000   0.000000   0.000023   0.002769  -0.033449   0.388450
    29  H   -0.044507   0.397557   0.002589   0.000066   0.000000   0.000000
    30  H   -0.056783   0.395164   0.001109  -0.000309   0.000014   0.000000
    31  H   -0.032498   0.395485   0.001449   0.000283   0.000005   0.000000
    32  H   -0.000306   0.000033   0.000027   0.000000   0.000000   0.000000
    33  H    0.000000   0.000000   0.000000   0.000000   0.000000   0.000000
    34  H    0.000000   0.000000   0.000000   0.000000   0.000000   0.000000
    35  H    0.000000   0.000000   0.000000   0.000000   0.000000   0.000000
    36  H   -0.000001   0.000000   0.000000  -0.000005   0.000000   0.000000
    37  H   -0.000006   0.000000  -0.000003  -0.000039   0.000001   0.000000
             19         20         21         22         23         24
     1  Cl   0.000000   0.000000   0.000246   0.003422  -0.068995  -0.000423
     2  C    0.000000   0.000000  -0.029271  -0.040497   0.522844  -0.026228
     3  C    0.000000  -0.000001  -0.027223  -0.043882  -0.045736   0.001948
     4  C   -0.000259   0.000136   0.580440  -0.041024  -0.029427   0.000254
     5  C   -0.000052   0.000331  -0.037022   0.004617   0.000052   0.000004
     6  C    0.000000   0.000002   0.002436  -0.000127   0.000015   0.000000
     7  C    0.000000   0.000000   0.000114   0.000030   0.000009   0.000000
     8  C    0.000000   0.000000  -0.000001   0.000000  -0.000001   0.000000
     9  C    0.000000   0.000000   0.000000   0.000000   0.000000   0.000000
    10  C    0.000000   0.000000   0.000001   0.000000   0.000000   0.000000
    11  C    0.000000   0.000000  -0.000038   0.000001   0.000000   0.000000
    12  N   -0.000156   0.000705  -0.011268  -0.000039   0.000019   0.000000
    13  N    0.007636  -0.092157   0.007831   0.000184  -0.000024   0.000000
    14  C   -0.000189  -0.001639  -0.000067   0.000010   0.000000   0.000000
    15  C   -0.111514   0.498213  -0.023712   0.002156  -0.000057   0.000000
    16  N   -0.076615  -0.093385   0.172331  -0.070003   0.005124  -0.000069
    17  C    0.521862  -0.116083  -0.029360  -0.000919  -0.000031  -0.000005
    18  C   -0.045171   0.004057  -0.000548  -0.008314   0.000216   0.000008
    19  N    6.784900   0.285663   0.006610   0.000079  -0.000004   0.000000
    20  N    0.285663   6.909567   0.007102  -0.000189   0.000000   0.000000
    21  C    0.006610   0.007102   4.573566   0.535142  -0.035074   0.001255
    22  C    0.000079  -0.000189   0.535142   4.994472   0.527834  -0.022735
    23  C   -0.000004   0.000000  -0.035074   0.527834   4.934334   0.379499
    24  H    0.000000   0.000000   0.001255  -0.022735   0.379499   0.416118
    25  H   -0.000052  -0.000008  -0.032288   0.376671  -0.022478  -0.001488
    26  H    0.000295  -0.000050   0.001520   0.000162  -0.000091  -0.000003
    27  H    0.000448  -0.000105  -0.001576  -0.002973   0.000507   0.000015
    28  H    0.001959   0.000003   0.000019   0.000258   0.000001   0.000000
    29  H    0.000004   0.000087  -0.000048  -0.000001   0.000000   0.000000
    30  H   -0.000072   0.002645   0.000037   0.000000   0.000000   0.000000
    31  H   -0.000060  -0.000123  -0.000040   0.000000   0.000000   0.000000
    32  H    0.000000   0.000000   0.000001   0.000000   0.000000   0.000000
    33  H    0.000000   0.000000   0.000000   0.000000   0.000000   0.000000
    34  H    0.000000   0.000000   0.000000   0.000000   0.000000   0.000000
    35  H    0.000000   0.000000   0.000000   0.000000   0.000000   0.000000
    36  H    0.000000   0.000000  -0.000021  -0.000028   0.000004   0.000000
    37  H    0.000000   0.000000   0.001283   0.000053   0.001939  -0.000092
             25         26         27         28         29         30
     1  Cl  -0.000098   0.000000   0.000000   0.000000   0.000000   0.000000
     2  C    0.002356   0.000001  -0.000008   0.000000   0.000000   0.000000
     3  C    0.000373  -0.000006   0.000005   0.000000  -0.000002   0.000000
     4  C    0.002206   0.000066  -0.000093   0.000004  -0.000027   0.000023
     5  C   -0.000085   0.000001   0.000000   0.000000   0.000303   0.000107
     6  C    0.000001   0.000001   0.000000   0.000000  -0.000012  -0.000015
     7  C    0.000000   0.000000   0.000000   0.000000   0.000000   0.000000
     8  C    0.000000   0.000000   0.000000   0.000000   0.000000   0.000000
     9  C    0.000000   0.000000   0.000000   0.000000   0.000000   0.000000
    10  C    0.000000   0.000000   0.000000   0.000000   0.000000   0.000000
    11  C    0.000000   0.000000   0.000000   0.000000  -0.000002  -0.000003
    12  N    0.000002  -0.000004   0.000001   0.000000  -0.001094   0.004339
    13  N   -0.000002  -0.000003  -0.000002   0.000000  -0.044507  -0.056783
    14  C    0.000000   0.000000   0.000000   0.000000   0.397557   0.395164
    15  C    0.000046   0.000066   0.000071   0.000023   0.002589   0.001109
    16  N   -0.002435  -0.000132  -0.000371   0.002769   0.000066  -0.000309
    17  C    0.002129  -0.046696  -0.049295  -0.033449   0.000000   0.000014
    18  C   -0.004005   0.386976   0.388697   0.388450   0.000000   0.000000
    19  N   -0.000052   0.000295   0.000448   0.001959   0.000004  -0.000072
    20  N   -0.000008  -0.000050  -0.000105   0.000003   0.000087   0.002645
    21  C   -0.032288   0.001520  -0.001576   0.000019  -0.000048   0.000037
    22  C    0.376671   0.000162  -0.002973   0.000258  -0.000001   0.000000
    23  C   -0.022478  -0.000091   0.000507   0.000001   0.000000   0.000000
    24  H   -0.001488  -0.000003   0.000015   0.000000   0.000000   0.000000
    25  H    0.440960  -0.000094   0.000130   0.000099   0.000000   0.000000
    26  H   -0.000094   0.517732  -0.031269  -0.017829   0.000000   0.000000
    27  H    0.000130  -0.031269   0.544036  -0.020404   0.000000   0.000000
    28  H    0.000099  -0.017829  -0.020404   0.445992   0.000000   0.000000
    29  H    0.000000   0.000000   0.000000   0.000000   0.525787  -0.035769
    30  H    0.000000   0.000000   0.000000   0.000000  -0.035769   0.528969
    31  H    0.000000   0.000000   0.000000   0.000000  -0.023054  -0.025534
    32  H    0.000000   0.000000   0.000000   0.000000   0.000006   0.000031
    33  H    0.000000   0.000000   0.000000   0.000000   0.000000   0.000000
    34  H    0.000000   0.000000   0.000000   0.000000   0.000000   0.000000
    35  H    0.000000   0.000000   0.000000   0.000000   0.000000   0.000000
    36  H    0.000000   0.000002   0.000000   0.000000   0.000000   0.000000
    37  H    0.000009   0.000000   0.000000   0.000000   0.000000   0.000000
             31         32         33         34         35         36
     1  Cl   0.000000   0.000000   0.000000   0.000000   0.000000   0.000010
     2  C    0.000000   0.000000   0.000000   0.000000   0.000000   0.000280
     3  C    0.000000  -0.000021   0.000000   0.000000  -0.000007   0.001024
     4  C    0.000007   0.000358   0.000001   0.000000   0.000003   0.003649
     5  C   -0.000063  -0.002979  -0.000095   0.000005  -0.000089  -0.003957
     6  C    0.000000  -0.028549   0.001954   0.000252   0.001621  -0.031622
     7  C    0.000000   0.002590   0.000252   0.002586  -0.028858   0.376172
     8  C    0.000000   0.000040   0.002538  -0.029394   0.382556  -0.025164
     9  C    0.000000   0.002357  -0.030376   0.381457  -0.028509   0.002262
    10  C    0.000000  -0.030533   0.382848  -0.028594   0.002377   0.000084
    11  C    0.000000   0.379572  -0.028645   0.002093   0.000298   0.002864
    12  N    0.002678   0.007517  -0.000008   0.000000   0.000000  -0.000072
    13  N   -0.032498  -0.000306   0.000000   0.000000   0.000000  -0.000001
    14  C    0.395485   0.000033   0.000000   0.000000   0.000000   0.000000
    15  C    0.001449   0.000027   0.000000   0.000000   0.000000   0.000000
    16  N    0.000283   0.000000   0.000000   0.000000   0.000000  -0.000005
    17  C    0.000005   0.000000   0.000000   0.000000   0.000000   0.000000
    18  C    0.000000   0.000000   0.000000   0.000000   0.000000   0.000000
    19  N   -0.000060   0.000000   0.000000   0.000000   0.000000   0.000000
    20  N   -0.000123   0.000000   0.000000   0.000000   0.000000   0.000000
    21  C   -0.000040   0.000001   0.000000   0.000000   0.000000  -0.000021
    22  C    0.000000   0.000000   0.000000   0.000000   0.000000  -0.000028
    23  C    0.000000   0.000000   0.000000   0.000000   0.000000   0.000004
    24  H    0.000000   0.000000   0.000000   0.000000   0.000000   0.000000
    25  H    0.000000   0.000000   0.000000   0.000000   0.000000   0.000000
    26  H    0.000000   0.000000   0.000000   0.000000   0.000000   0.000002
    27  H    0.000000   0.000000   0.000000   0.000000   0.000000   0.000000
    28  H    0.000000   0.000000   0.000000   0.000000   0.000000   0.000000
    29  H   -0.023054   0.000006   0.000000   0.000000   0.000000   0.000000
    30  H   -0.025534   0.000031   0.000000   0.000000   0.000000   0.000000
    31  H    0.476985   0.000000   0.000000   0.000000   0.000000   0.000000
    32  H    0.000000   0.427573  -0.001552  -0.000091   0.000009  -0.000095
    33  H    0.000000  -0.001552   0.464631  -0.001375  -0.000107   0.000010
    34  H    0.000000  -0.000091  -0.001375   0.460971  -0.001307  -0.000099
    35  H    0.000000   0.000009  -0.000107  -0.001307   0.461113  -0.001192
    36  H    0.000000  -0.000095   0.000010  -0.000099  -0.001192   0.452060
    37  H    0.000000  -0.000002   0.000000   0.000000  -0.000003  -0.001257
             37
     1  Cl   0.000080
     2  C   -0.022780
     3  C    0.375160
     4  C   -0.027571
     5  C   -0.001367
     6  C    0.004881
     7  C    0.002233
     8  C    0.000082
     9  C   -0.000021
    10  C   -0.000030
    11  C   -0.000055
    12  N    0.000101
    13  N   -0.000006
    14  C    0.000000
    15  C   -0.000003
    16  N   -0.000039
    17  C    0.000001
    18  C    0.000000
    19  N    0.000000
    20  N    0.000000
    21  C    0.001283
    22  C    0.000053
    23  C    0.001939
    24  H   -0.000092
    25  H    0.000009
    26  H    0.000000
    27  H    0.000000
    28  H    0.000000
    29  H    0.000000
    30  H    0.000000
    31  H    0.000000
    32  H   -0.000002
    33  H    0.000000
    34  H    0.000000
    35  H   -0.000003
    36  H   -0.001257
    37  H    0.396103
 Mulliken atomic charges:
              1
     1  Cl   0.004579
     2  C   -0.142939
     3  C   -0.187839
     4  C   -0.060252
     5  C    0.345483
     6  C   -0.036988
     7  C   -0.214160
     8  C   -0.205350
     9  C   -0.188685
    10  C   -0.208840
    11  C   -0.175068
    12  N   -0.360406
    13  N   -0.531018
    14  C   -0.262946
    15  C    0.835430
    16  N   -0.794777
    17  C    0.513959
    18  C   -0.531091
    19  N   -0.375312
    20  N   -0.404770
    21  C    0.337622
    22  C   -0.214358
    23  C   -0.170479
    24  H    0.251942
    25  H    0.238053
    26  H    0.189356
    27  H    0.172185
    28  H    0.232105
    29  H    0.178117
    30  H    0.186045
    31  H    0.204481
    32  H    0.244012
    33  H    0.209926
    34  H    0.213495
    35  H    0.212095
    36  H    0.225091
    37  H    0.271301
 Sum of Mulliken charges=   0.00000
 Atomic charges with hydrogens summed into heavy atoms:
              1
     1  Cl   0.004579
     2  C   -0.142939
     3  C    0.083462
     4  C   -0.060252
     5  C    0.345483
     6  C   -0.036988
     7  C    0.010931
     8  C    0.006745
     9  C    0.024811
    10  C    0.001086
    11  C    0.068944
    12  N   -0.360406
    13  N   -0.531018
    14  C    0.305696
    15  C    0.835430
    16  N   -0.794777
    17  C    0.513959
    18  C    0.062555
    19  N   -0.375312
    20  N   -0.404770
    21  C    0.337622
    22  C    0.023695
    23  C    0.081463
    24  H    0.000000
    25  H    0.000000
    26  H    0.000000
    27  H    0.000000
    28  H    0.000000
    29  H    0.000000
    30  H    0.000000
    31  H    0.000000
    32  H    0.000000
    33  H    0.000000
    34  H    0.000000
    35  H    0.000000
    36  H    0.000000
    37  H    0.000000
 Sum of Mulliken charges=   0.00000
 Entering OneElI...
 OneElI was handed  6070701 working-precision words.
 Multipole integrals L=0 to 4 MinM= 0 MaxM= 0.
 Requested accuracy = 0.1000D-12
 PrsmSu:  NPrtUS=   1 ThrOK=F
 PRISM was handed     5552635 working-precision words and  5683 shell-pairs
 Electronic moments (au):
  -168.00000000     1.52894812     1.43013384    -0.00251815
 -3787.02398426 -2940.29265173  -886.28686190   -18.54096702
     5.34484460     7.76770162 -2595.99103296 -6889.31384141
  -240.60449787 -4543.14945782  6322.44336482 -4597.51603286
  1451.64088854   912.06875025  2769.42878774  2793.72061661
******************************-15618.59636609 24314.30956629
 -4281.74098641-14676.34355490  8778.60310819   104.94303402
 -5533.05667817-55669.80781814-26119.78629617-12654.61200639
  5050.06106101   438.53046167 -1633.05941432
 Electronic spatial extent (au):  <R**2>=  7613.6035
 Nuclear    moments (au):
   168.00000000     0.00000000     0.00000000     0.00000000
  3677.07026580  2833.52906348   785.94723213     0.00000000
     0.00000000     0.00000000  2780.68787433  6904.31874076
   230.47345683  4565.58824365 -6267.47874649  4605.62130643
 -1466.46579337  -918.79630003 -2787.58595240 -2826.69691813
152210.55972798106695.51110725 12556.71360392-25314.32756389
  4804.17540492 14203.61693422 -8571.54332641   -77.45810706
  5690.45399834 51654.67496582 23481.58335427 10353.77153317
 -4889.10177620  -370.71531682  1701.06860098
 Total      moments (au):
     0.00000000     1.52894812     1.43013384    -0.00251815
  -109.95371846  -106.76358825  -100.33962976   -18.54096702
     5.34484460     7.76770162   184.69684137    15.00489935
   -10.13104104    22.43878583    54.96461833     8.10527357
   -14.82490483    -6.72754978   -18.15716466   -32.97630151
-14370.17920373-10345.52955426 -3061.88276218 -1000.01799760
   522.43441851  -472.72662068   207.05978178    27.48492696
   157.39732017 -4015.13285232 -2638.20294190 -2300.84047321
   160.95928481    67.81514484    68.00918666
 Charge=     0.0000 electrons
 Dipole moment (field-independent basis, Debye):
    X=     3.8862    Y=     3.6350    Z=    -0.0064  Tot=     5.3213
 Quadrupole moment (field-independent basis, Debye-Ang):
   XX=  -147.8915   YY=  -143.6007   ZZ=  -134.9602
   XY=   -24.9382   XZ=     7.1890   YZ=    10.4478
 Traceless Quadrupole moment (field-independent basis, Debye-Ang):
   XX=    -5.7407   YY=    -1.4499   ZZ=     7.1906
   XY=   -24.9382   XZ=     7.1890   YZ=    10.4478
 Octapole moment (field-independent basis, Debye-Ang**2):
  XXX=   131.4601  YYY=    10.6799  ZZZ=    -7.2109  XYY=    15.9711
  XXY=    39.1217  XXZ=     5.7690  XZZ=   -10.5518  YZZ=    -4.7884
  YYZ=   -12.9236  XYZ=   -23.4713
 Hexadecapole moment (field-independent basis, Debye-Ang**3):
 XXXX= -5412.4981 YYYY= -3896.6222 ZZZZ= -1153.2518 XXXY=  -376.6547
 XXXZ=   196.7738 YYYX=  -178.0515 YYYZ=    77.9886 ZZZX=    10.3521
 ZZZY=    59.2834 XXYY= -1512.2914 XXZZ=  -993.6737 YYZZ=  -866.6068
 XXYZ=    60.6250 YYXZ=    25.5424 ZZXY=    25.6155
 N-N= 1.975316646539D+03 E-N=-7.198090088248D+03  KE= 1.381427792042D+03
 Entering OneElI...
 OneElI was handed  5785141 working-precision words.
 Calculate electrostatic properties
    NBasis =   377  MinDer = 0  MaxDer = 0
    NGrid  =    37  NMatD  =   1
 Requested accuracy = 0.1000D-12
 PrsmSu:  NPrtUS=   1 ThrOK=F
 PRISM was handed     5317099 working-precision words and  5048 shell-pairs
 --------------------------------------------------------
       Center         ----      EFG at Nuclei      ----
                      3XX-RR        3YY-RR        3ZZ-RR
 --------------------------------------------------------
     1   Atom       -0.372595     -1.205025      1.577620
     2   Atom        0.065223      0.026454     -0.091677
     3   Atom        0.125764      0.143423     -0.269187
     4   Atom        0.089116      0.125607     -0.214723
     5   Atom        0.126829      0.108443     -0.235273
     6   Atom       -0.036941      0.098738     -0.061797
     7   Atom        0.068321      0.033971     -0.102292
     8   Atom        0.048081      0.052045     -0.100126
     9   Atom        0.035525      0.072269     -0.107794
    10   Atom        0.061924      0.030867     -0.092791
    11   Atom        0.069100      0.032248     -0.101348
    12   Atom       -0.697693      1.147417     -0.449724
    13   Atom       -0.998305      0.984915      0.013390
    14   Atom        0.098447      0.022452     -0.120899
    15   Atom        0.107068     -0.041103     -0.065964
    16   Atom        0.015563     -0.061725      0.046162
    17   Atom       -0.113244      0.155523     -0.042279
    18   Atom        0.056752     -0.015107     -0.041645
    19   Atom        0.487293     -0.277661     -0.209632
    20   Atom        0.084010      0.467091     -0.551101
    21   Atom        0.059632      0.104962     -0.164594
    22   Atom        0.120577      0.155605     -0.276181
    23   Atom        0.112905      0.171814     -0.284719
    24   Atom        0.108173     -0.267878      0.159706
    25   Atom       -0.252032      0.115217      0.136815
    26   Atom       -0.141903      0.143347     -0.001444
    27   Atom        0.138938     -0.206037      0.067099
    28   Atom       -0.116477      0.108847      0.007630
    29   Atom        0.007553      0.137678     -0.145230
    30   Atom        0.147299     -0.250784      0.103485
    31   Atom       -0.227571      0.109545      0.118026
    32   Atom        0.066827     -0.002177     -0.064651
    33   Atom        0.075801     -0.196164      0.120364
    34   Atom       -0.203945      0.111791      0.092154
    35   Atom        0.058483      0.004894     -0.063377
    36   Atom        0.068025     -0.175469      0.107444
    37   Atom       -0.238390      0.118381      0.120009
 --------------------------------------------------------
                        XY            XZ            YZ
 --------------------------------------------------------
     1   Atom       -2.648587      0.622236      0.773954
     2   Atom       -0.325184     -0.053815      0.101908
     3   Atom       -0.005328     -0.134835     -0.007028
     4   Atom        0.028516     -0.126366     -0.007818
     5   Atom       -0.055603      0.221633      0.105889
     6   Atom       -0.058760      0.080735      0.185600
     7   Atom       -0.127958      0.192879      0.167478
     8   Atom       -0.135162      0.153693      0.165500
     9   Atom       -0.121731      0.183609      0.218123
    10   Atom       -0.108875      0.195758      0.160197
    11   Atom       -0.141949      0.211175      0.192108
    12   Atom       -0.306829     -0.162625      0.264705
    13   Atom        0.373212     -0.298934     -0.908487
    14   Atom       -0.100919     -0.129521     -0.203207
    15   Atom        0.123370     -0.153734      0.022023
    16   Atom       -0.402647      0.374490     -0.298263
    17   Atom        0.097558      0.036910      0.170609
    18   Atom        0.043139      0.006051     -0.069964
    19   Atom        0.436329     -0.578395     -0.336796
    20   Atom        0.423550      0.387515      0.246358
    21   Atom       -0.171707     -0.092110      0.065824
    22   Atom        0.038286     -0.126078      0.017098
    23   Atom        0.024719     -0.129084     -0.003928
    24   Atom        0.119584      0.018113     -0.040655
    25   Atom        0.096736      0.111328     -0.020484
    26   Atom       -0.014387     -0.199891     -0.018431
    27   Atom        0.067023     -0.021965      0.151936
    28   Atom       -0.089886      0.187344      0.059505
    29   Atom       -0.036306      0.192026      0.034514
    30   Atom        0.006555     -0.009566      0.106079
    31   Atom        0.105417     -0.087799      0.009261
    32   Atom       -0.107161     -0.143508     -0.184505
    33   Atom        0.165557      0.042963     -0.119679
    34   Atom        0.121557     -0.157963      0.042652
    35   Atom       -0.109662     -0.150196     -0.187682
[...]
 9620 Fit      -0.020039
 9621 Fit      -0.029624
 9622 Fit      -0.023577
 9623 Fit      -0.019288
 9624 Fit      -0.016301
 9625 Fit      -0.014357
 9626 Fit      -0.013326
 9627 Fit      -0.013171
 9628 Fit      -0.013966
 9629 Fit      -0.015934
 9630 Fit      -0.026625
 9631 Fit      -0.021341
 9632 Fit      -0.017443
 9633 Fit      -0.014608
 9634 Fit      -0.012638
 9635 Fit      -0.011419
 9636 Fit      -0.010898
 9637 Fit      -0.011089
 9638 Fit      -0.012080
 9639 Fit      -0.014094
 9640 Fit      -0.028831
 9641 Fit      -0.023258
 9642 Fit      -0.018929
 9643 Fit      -0.015581
 9644 Fit      -0.013032
 9645 Fit      -0.011159
 9646 Fit      -0.009879
 9647 Fit      -0.009146
 9648 Fit      -0.008946
 9649 Fit      -0.009301
 9650 Fit      -0.010287
 9651 Fit      -0.012073
 9652 Fit      -0.015009
 9653 Fit      -0.021263
 9654 Fit      -0.017587
 9655 Fit      -0.014576
 9656 Fit      -0.012161
 9657 Fit      -0.010280
 9658 Fit      -0.008881
 9659 Fit      -0.007928
 9660 Fit      -0.007397
 9661 Fit      -0.007281
 9662 Fit      -0.007591
 9663 Fit      -0.008368
 9664 Fit      -0.009704
 9665 Fit      -0.015079
 9666 Fit      -0.012617
 9667 Fit      -0.010537
 9668 Fit      -0.008851
 9669 Fit      -0.007549
 9670 Fit      -0.006618
 9671 Fit      -0.006042
 9672 Fit      -0.005811
 9673 Fit      -0.005917
 9674 Fit      -0.006365
 9675 Fit      -0.007177
 9676 Fit      -0.011182
 9677 Fit      -0.009437
 9678 Fit      -0.007898
 9679 Fit      -0.006628
 9680 Fit      -0.005651
 9681 Fit      -0.004971
 9682 Fit      -0.004580
 9683 Fit      -0.004461
 9684 Fit      -0.004591
 9685 Fit      -0.006725
 9686 Fit      -0.005643
 9687 Fit      -0.004724
 9688 Fit      -0.004011
 9689 Fit      -0.003515
 9690 Fit      -0.003221
 9691 Fit      -0.023780
 9692 Fit      -0.022428
 9693 Fit      -0.004863
 9694 Fit      -0.006966
 9695 Fit      -0.009464
 9696 Fit      -0.011937
 9697 Fit      -0.014099
 9698 Fit      -0.015777
 9699 Fit      -0.016885
 9700 Fit      -0.017406
 9701 Fit      -0.017365
 9702 Fit      -0.016809
 9703 Fit      -0.015790
 9704 Fit      -0.003464
 9705 Fit      -0.004175
 9706 Fit      -0.005549
 9707 Fit      -0.007207
 9708 Fit      -0.008857
 9709 Fit      -0.010291
 9710 Fit      -0.011383
 9711 Fit      -0.012070
 9712 Fit      -0.012332
 9713 Fit      -0.012180
 9714 Fit      -0.011635
 9715 Fit      -0.010718
 9716 Fit      -0.003842
 9717 Fit      -0.002950
 9718 Fit      -0.002965
 9719 Fit      -0.003630
 9720 Fit      -0.004660
 9721 Fit      -0.005806
 9722 Fit      -0.006873
 9723 Fit      -0.007729
 9724 Fit      -0.008296
 9725 Fit      -0.008538
 9726 Fit      -0.008443
 9727 Fit      -0.008015
 9728 Fit      -0.007258
 9729 Fit      -0.003481
 9730 Fit      -0.002533
 9731 Fit      -0.002190
 9732 Fit      -0.002381
 9733 Fit      -0.002939
 9734 Fit      -0.003676
 9735 Fit      -0.004426
 9736 Fit      -0.005064
 9737 Fit      -0.005506
 9738 Fit      -0.005701
 9739 Fit      -0.005625
 9740 Fit      -0.005266
 9741 Fit      -0.004620
 9742 Fit      -0.002384
 9743 Fit      -0.001763
 9744 Fit      -0.001543
 9745 Fit      -0.001704
 9746 Fit      -0.002120
 9747 Fit      -0.002638
 9748 Fit      -0.003118
 9749 Fit      -0.003456
 9750 Fit      -0.003583
 9751 Fit      -0.003458
 9752 Fit      -0.003058
 9753 Fit      -0.002374
 9754 Fit      -0.001460
 9755 Fit      -0.001090
 9756 Fit      -0.000972
 9757 Fit      -0.001113
 9758 Fit      -0.001411
 9759 Fit      -0.001733
 9760 Fit      -0.001959
 9761 Fit      -0.002002
 9762 Fit      -0.001808
 9763 Fit      -0.001344
 9764 Fit      -0.000649
 9765 Fit      -0.000497
 9766 Fit      -0.000520
 9767 Fit      -0.000678
 9768 Fit      -0.000843
 9769 Fit      -0.000880
 9770 Fit      -0.000692
 9771 Fit      -0.000231
 9772 Fit      -0.000100
 9773 Fit      -0.000069
 9774 Fit      -0.000087
 9775 Fit      -0.000135
 9776 Fit      -0.000032
 9777 Fit       0.000365
 9778 Fit       0.000338
 9779 Fit       0.000363
 9780 Fit       0.000691
 9781 Fit       0.000764
 9782 Fit      -0.011115
 9783 Fit      -0.007294
 9784 Fit      -0.004211
 9785 Fit      -0.001476
 9786 Fit      -0.009329
 9787 Fit      -0.005703
 9788 Fit      -0.002766
 9789 Fit      -0.000187
 9790 Fit       0.002294
 9791 Fit       0.004921
 9792 Fit      -0.004953
 9793 Fit      -0.002133
 9794 Fit       0.000303
 9795 Fit       0.002551
 9796 Fit       0.004779
 9797 Fit       0.007125
 9798 Fit      -0.003693
 9799 Fit      -0.001314
 9800 Fit       0.000825
 9801 Fit       0.002794
 9802 Fit       0.004670
 9803 Fit       0.006513
 9804 Fit       0.008322
 9805 Fit      -0.001216
 9806 Fit       0.000455
 9807 Fit       0.002188
 9808 Fit       0.003869
 9809 Fit       0.005471
 9810 Fit       0.006967
 9811 Fit       0.008261
 9812 Fit       0.009134
 9813 Fit       0.009272
 9814 Fit       0.006655
 9815 Fit       0.003132
 9816 Fit       0.002121
 9817 Fit       0.003365
 9818 Fit       0.004706
 9819 Fit       0.005998
 9820 Fit       0.007120
 9821 Fit       0.007909
 9822 Fit       0.008151
 9823 Fit       0.007700
 9824 Fit       0.006503
 9825 Fit       0.005613
 9826 Fit       0.004917
 9827 Fit       0.004572
 9828 Fit       0.004378
 9829 Fit       0.003950
 9830 Fit       0.003156
 9831 Fit       0.003306
 9832 Fit       0.004011
 9833 Fit       0.005018
 9834 Fit       0.006064
 9835 Fit       0.006914
 9836 Fit       0.007343
 9837 Fit       0.007189
 9838 Fit       0.006316
 9839 Fit       0.005631
 9840 Fit       0.005080
 9841 Fit       0.004635
 9842 Fit       0.004119
 9843 Fit       0.003835
 9844 Fit       0.004015
 9845 Fit       0.004359
 9846 Fit       0.004961
 9847 Fit       0.005809
 9848 Fit       0.006526
 9849 Fit       0.006729
 9850 Fit       0.006024
 9851 Fit       0.005424
 9852 Fit       0.004922
 9853 Fit       0.004907
 9854 Fit       0.005445
 9855 Fit       0.006089
 9856 Fit       0.005568
 9857 Fit       0.005754
 9858 Fit       0.007669
 9859 Fit       0.009464
 9860 Fit       0.011213
 9861 Fit       0.003526
 9862 Fit       0.005425
 9863 Fit       0.007107
 9864 Fit       0.008603
 9865 Fit       0.009944
 9866 Fit       0.011155
 9867 Fit       0.012248
 9868 Fit       0.011992
 9869 Fit       0.001700
 9870 Fit       0.003636
 9871 Fit       0.005344
 9872 Fit       0.006845
 9873 Fit       0.008153
 9874 Fit       0.009281
 9875 Fit       0.010235
 9876 Fit       0.011014
 9877 Fit       0.011604
 9878 Fit       0.011961
 9879 Fit       0.010723
 9880 Fit       0.009950
 9881 Fit       0.001778
 9882 Fit       0.003538
 9883 Fit       0.005114
 9884 Fit       0.006512
 9885 Fit       0.007733
 9886 Fit       0.008775
 9887 Fit       0.009638
 9888 Fit       0.010315
 9889 Fit       0.010796
 9890 Fit       0.011057
 9891 Fit       0.011056
 9892 Fit       0.009865
 9893 Fit       0.008912
 9894 Fit       0.002899
 9895 Fit       0.004385
 9896 Fit       0.005760
 9897 Fit       0.006997
 9898 Fit       0.008079
 9899 Fit       0.008988
 9900 Fit       0.009713
 9901 Fit       0.010239
 9902 Fit       0.010549
 9903 Fit       0.010619
 9904 Fit       0.010409
 9905 Fit       0.009268
 9906 Fit       0.008208
 9907 Fit       0.006708
 9908 Fit       0.003893
 9909 Fit       0.005002
 9910 Fit       0.006144
 9911 Fit       0.007232
 9912 Fit       0.008207
 9913 Fit       0.009032
 9914 Fit       0.009675
 9915 Fit       0.010114
 9916 Fit       0.010324
 9917 Fit       0.010277
 9918 Fit       0.009940
 9919 Fit       0.008835
 9920 Fit       0.007749
 9921 Fit       0.006286
 9922 Fit       0.005569
 9923 Fit       0.005983
 9924 Fit       0.006712
 9925 Fit       0.007542
 9926 Fit       0.008351
 9927 Fit       0.009058
 9928 Fit       0.009612
 9929 Fit       0.009972
 9930 Fit       0.010105
 9931 Fit       0.009981
 9932 Fit       0.009569
 9933 Fit       0.008512
 9934 Fit       0.007376
 9935 Fit       0.005893
 9936 Fit       0.007432
 9937 Fit       0.007708
 9938 Fit       0.008254
 9939 Fit       0.008855
 9940 Fit       0.009379
 9941 Fit       0.009738
 9942 Fit       0.009873
 9943 Fit       0.009737
 9944 Fit       0.009293
 9945 Fit       0.008269
 9946 Fit       0.007140
 9947 Fit       0.005718
 9948 Fit       0.008822
 9949 Fit       0.008595
 9950 Fit       0.008820
 9951 Fit       0.009185
 9952 Fit       0.009496
 9953 Fit       0.009629
 9954 Fit       0.009500
 9955 Fit       0.009056
 9956 Fit       0.008102
 9957 Fit       0.006988
 9958 Fit       0.005670
 9959 Fit       0.009402
 9960 Fit       0.009188
 9961 Fit       0.009287
 9962 Fit       0.009390
 9963 Fit       0.009295
 9964 Fit       0.008882
 9965 Fit       0.008035
 9966 Fit       0.006943
 9967 Fit       0.009586
 9968 Fit       0.009296
 9969 Fit       0.009164
 9970 Fit       0.008805
 9971 Fit       0.008119
 9972 Fit       0.007321
 9973 Fit       0.009244
 9974 Fit       0.008858
 9975 Fit       0.008455
 9976 Fit       0.011074
 9977 Fit       0.009397
 9978 Fit       0.011449
 9979 Fit       0.012527
 9980 Fit       0.007156
 9981 Fit       0.008853
 9982 Fit       0.010303
 9983 Fit       0.011680
 9984 Fit       0.012343
 9985 Fit       0.013191
 9986 Fit       0.006971
 9987 Fit       0.008619
 9988 Fit       0.009939
 9989 Fit       0.010933
 9990 Fit       0.011805
 9991 Fit       0.012174
 9992 Fit       0.012592
 9993 Fit       0.013308
 9994 Fit       0.004701
 9995 Fit       0.006682
 9996 Fit       0.008339
 9997 Fit       0.009651
 9998 Fit       0.010632
 9999 Fit       0.011327
 **** Fit       0.011836
 **** Fit       0.011974
 **** Fit       0.012080
 **** Fit       0.012301
 **** Fit       0.012871
 **** Fit       0.006202
 **** Fit       0.007944
 **** Fit       0.009320
 **** Fit       0.010356
 **** Fit       0.011090
 **** Fit       0.011565
 **** Fit       0.011771
 **** Fit       0.011720
 **** Fit       0.011587
 **** Fit       0.011451
 **** Fit       0.011428
 **** Fit       0.005917
 **** Fit       0.007684
 **** Fit       0.009077
 **** Fit       0.010136
 **** Fit       0.010900
 **** Fit       0.011403
 **** Fit       0.011680
 **** Fit       0.011606
 **** Fit       0.011388
 **** Fit       0.011052
 **** Fit       0.010649
 **** Fit       0.010243
 **** Fit       0.009915
 **** Fit       0.004874
 **** Fit       0.006913
 **** Fit       0.008504
 **** Fit       0.009714
 **** Fit       0.010596
 **** Fit       0.011193
 **** Fit       0.011540
 **** Fit       0.011668
 **** Fit       0.011344
 **** Fit       0.010976
 **** Fit       0.010469
 **** Fit       0.009851
 **** Fit       0.009150
 **** Fit       0.008390
 **** Fit       0.006277
 **** Fit       0.008041
 **** Fit       0.009364
 **** Fit       0.010328
 **** Fit       0.010991
 **** Fit       0.011397
 **** Fit       0.011576
 **** Fit       0.011551
 **** Fit       0.010989
 **** Fit       0.010472
 **** Fit       0.009802
 **** Fit       0.008988
 **** Fit       0.008036
 **** Fit       0.007505
 **** Fit       0.009019
 **** Fit       0.010093
 **** Fit       0.010825
 **** Fit       0.011281
 **** Fit       0.011503
 **** Fit       0.011518
 **** Fit       0.011342
 **** Fit       0.010556
 **** Fit       0.009856
 **** Fit       0.008980
 **** Fit       0.007925
 **** Fit       0.006678
 **** Fit       0.009860
 **** Fit       0.010748
 **** Fit       0.011279
 **** Fit       0.011540
 **** Fit       0.011579
 **** Fit       0.011422
 **** Fit       0.011079
 **** Fit       0.010062
 **** Fit       0.009139
 **** Fit       0.008015
 **** Fit       0.006669
 **** Fit       0.011818
 **** Fit       0.012010
 **** Fit       0.011969
 **** Fit       0.011746
 **** Fit       0.011356
 **** Fit       0.010797
 **** Fit       0.009533
 **** Fit       0.008356
 **** Fit       0.006963
 **** Fit       0.012775
 **** Fit       0.012109
 **** Fit       0.011373
 **** Fit       0.010527
 **** Fit       0.008993
 **** Fit       0.011720
 **** Fit       0.010397
 **** Fit       0.010740
 **** Fit       0.011134
 **** Fit       0.011622
 **** Fit       0.011384
 **** Fit       0.010333
 **** Fit       0.009526
 **** Fit       0.010108
 **** Fit       0.011497
 **** Fit       0.011956
 **** Fit       0.012188
 **** Fit       0.012252
 **** Fit       0.012031
 **** Fit       0.011275
 **** Fit       0.009948
 **** Fit       0.008584
 **** Fit       0.007959
 **** Fit       0.008387
 **** Fit       0.009507
 **** Fit       0.010676
 **** Fit       0.011820
 **** Fit       0.012126
 **** Fit       0.012304
 **** Fit       0.012446
 **** Fit       0.012594
 **** Fit       0.012716
 **** Fit       0.012682
 **** Fit       0.012259
 **** Fit       0.011232
 **** Fit       0.009635
 **** Fit       0.007875
 **** Fit       0.006525
 **** Fit       0.006006
 **** Fit       0.006417
 **** Fit       0.007542
 **** Fit       0.008975
 **** Fit       0.010293
 **** Fit       0.011247
 **** Fit       0.012102
 **** Fit       0.012225
 **** Fit       0.012269
 **** Fit       0.012319
 **** Fit       0.012427
 **** Fit       0.012621
 **** Fit       0.012899
 **** Fit       0.013200
 **** Fit       0.013368
 **** Fit       0.013140
 **** Fit       0.012228
 **** Fit       0.010536
 **** Fit       0.008321
 **** Fit       0.006475
 **** Fit       0.008277
 **** Fit       0.009892
 **** Fit       0.011070
 **** Fit       0.011769
 **** Fit       0.012350
 **** Fit       0.012240
 **** Fit       0.012106
 **** Fit       0.012019
 **** Fit       0.012020
 **** Fit       0.012141
 **** Fit       0.012408
 **** Fit       0.012836
 **** Fit       0.013404
 **** Fit       0.014012
 **** Fit       0.014427
 **** Fit       0.014268
 **** Fit       0.013140
 **** Fit       0.009395
 **** Fit       0.010989
 **** Fit       0.011924
 **** Fit       0.012308
 **** Fit       0.012568
 **** Fit       0.012167
 **** Fit       0.011815
 **** Fit       0.011559
 **** Fit       0.011421
 **** Fit       0.011417
 **** Fit       0.011570
 **** Fit       0.011911
 **** Fit       0.012476
 **** Fit       0.013287
 **** Fit       0.014315
 **** Fit       0.015421
 **** Fit       0.012515
 **** Fit       0.012990
 **** Fit       0.012909
 **** Fit       0.012745
 **** Fit       0.011954
 **** Fit       0.011328
 **** Fit       0.010880
 **** Fit       0.010603
 **** Fit       0.010494
 **** Fit       0.010565
 **** Fit       0.010850
 **** Fit       0.011403
 **** Fit       0.012295
 **** Fit       0.013593
 **** Fit       0.013626
 **** Fit       0.012829
 **** Fit       0.011565
 **** Fit       0.010632
 **** Fit       0.009977
 **** Fit       0.009552
 **** Fit       0.009327
 **** Fit       0.009297
 **** Fit       0.009486
 **** Fit       0.009949
 **** Fit       0.010776
 **** Fit       0.012089
 **** Fit       0.009600
 **** Fit       0.008748
 **** Fit       0.008194
 **** Fit       0.007878
 **** Fit       0.007776
 **** Fit       0.007902
 **** Fit       0.008310
 **** Fit       0.009102
 **** Fit       0.012566
 **** Fit       0.014046
 **** Fit       0.013558
 **** Fit       0.012206
 **** Fit       0.010644
 **** Fit       0.014989
 **** Fit       0.014638
 **** Fit       0.014427
 **** Fit       0.013806
 **** Fit       0.012329
 **** Fit       0.010210
 **** Fit       0.015323
 **** Fit       0.014943
 **** Fit       0.014993
 **** Fit       0.015167
 **** Fit       0.015115
 **** Fit       0.014436
 **** Fit       0.012866
 **** Fit       0.010557
 **** Fit       0.008027
 **** Fit       0.014923
 **** Fit       0.014678
 **** Fit       0.014894
 **** Fit       0.015361
 **** Fit       0.015886
 **** Fit       0.016215
 **** Fit       0.015976
 **** Fit       0.014789
 **** Fit       0.012595
 **** Fit       0.009752
 **** Fit       0.014510
 **** Fit       0.013956
 **** Fit       0.014002
 **** Fit       0.014437
 **** Fit       0.015126
 **** Fit       0.015968
 **** Fit       0.016840
 **** Fit       0.017494
 **** Fit       0.017461
 **** Fit       0.016238
 **** Fit       0.013766
 **** Fit       0.010496
 **** Fit       0.012814
 **** Fit       0.012708
 **** Fit       0.013005
 **** Fit       0.013595
 **** Fit       0.014408
 **** Fit       0.015402
 **** Fit       0.016554
 **** Fit       0.017798
 **** Fit       0.018869
 **** Fit       0.019155
 **** Fit       0.017984
 **** Fit       0.015300
 **** Fit       0.011676
 **** Fit       0.011104
 **** Fit       0.011441
 **** Fit       0.012030
 **** Fit       0.012823
 **** Fit       0.013796
 **** Fit       0.014969
 **** Fit       0.016376
 **** Fit       0.012882
 **** Fit       0.009257
 **** Fit       0.009672
 **** Fit       0.010229
 **** Fit       0.010910
 **** Fit       0.002602
 **** Fit       0.001496
 **** Fit       0.002929
 **** Fit       0.002649
 **** Fit       0.003486
 **** Fit       0.000473
 **** Fit       0.003749
 **** Fit       0.004115
 **** Fit      -0.000254
 **** Fit       0.002278
 **** Fit       0.004707
 **** Fit       0.004685
 **** Fit       0.001810
 **** Fit       0.003737
 **** Fit       0.005484
 **** Fit       0.005128
 **** Fit       0.003579
 **** Fit       0.004941
 **** Fit       0.006060
 **** Fit       0.005444
 **** Fit       0.005118
 **** Fit       0.005904
 **** Fit       0.006423
 **** Fit       0.005557
 **** Fit       0.005671
 **** Fit       0.006220
 **** Fit       0.006574
 **** Fit       0.006572
 **** Fit       0.005542
 **** Fit       0.007078
 **** Fit       0.006895
 **** Fit       0.006964
 **** Fit       0.006965
 **** Fit       0.006508
 **** Fit       0.005362
 **** Fit       0.007319
 **** Fit       0.007248
 **** Fit       0.007060
 **** Fit       0.006235
 **** Fit       0.004992
 **** Fit       0.006921
 **** Fit       0.006842
 -----------------------------------------------------------------
 Leave Link  602 at Wed Jun  8 11:57:53 2016, MaxMem=    6291456 cpu:       8.7

 Test job not archived.
 1\1\GINC-COMPUTE-2-8\FOpt\RHF\6-31G(d)\C17H14Cl1N5\DAVE\08-Jun-2016\0\
 \#HF/6-31G* SCF=tight Test Pop=MK iop(6/33=2) iop(6/42=6) opt\\remark 
 line goes here\\0,1\Cl,4.8600523486,11.2300599387,-8.1461313418\C,3.31
 40409277,10.4382287387,-8.245669388\C,2.7161913065,10.2614641141,-9.47
 49544938\C,1.4777104874,9.6334431972,-9.5763065478\C,0.8571630853,9.49
 08022525,-10.9324596209\C,1.7296989089,9.0967548521,-12.0825474569\C,2
 .7420331473,8.1564191236,-11.92658794\C,3.5159944898,7.7698205444,-13.
 0090248913\C,3.2929976323,8.3281433683,-14.2555672061\C,2.2874504084,9
 .2695128039,-14.4186038997\C,1.507436515,9.6480364085,-13.341761653\N,
 -0.3540388233,9.7110815032,-11.2008169177\N,-1.212614648,10.1036741263
 ,-10.1566084605\C,-2.4296038396,10.6715098051,-10.7216286527\C,-1.4400
 109292,9.0603482662,-9.2663351087\N,-0.4183421549,8.5903097786,-8.4933
 780173\C,-1.006651848,7.5768594492,-7.7658316562\C,-0.3101795087,6.671
 550824,-6.802392663\N,-2.2416810615,7.4874479794,-8.0797938191\N,-2.52
 33218772,8.4296634344,-9.0350776501\C,0.8529784719,9.1930294423,-8.411
 7386916\C,1.4610434125,9.3837967638,-7.1788935915\C,2.6949221137,9.996
 091274,-7.0911446156\H,3.1602812057,10.1440947129,-6.135598127\H,0.960
 2653766,9.0772649304,-6.2823232478\H,0.660506549,6.3665272375,-7.17619
 30075\H,-0.1699663549,7.1370120609,-5.8331339079\H,-0.9281699007,5.795
 4050666,-6.6673927271\H,-2.147995645,11.5233379274,-11.3235624189\H,-2
 .9657396425,9.9547108334,-11.3318534364\H,-3.0654735249,10.9994618906,
 -9.9127238754\H,0.7224052255,10.3686815619,-13.4676517512\H,2.11130935
 24,9.7079152049,-15.3843361845\H,3.8972837372,8.0334708643,-15.0946810
 993\H,4.2890322803,7.0346868189,-12.8758304231\H,2.9234603412,7.714018
 3894,-10.9641671736\H,3.210532435,10.6093645122,-10.3602983372\\Versio
 n=AM64L-G03RevD.02\State=1-A\HF=-1383.5822681\RMSD=7.678e-09\RMSF=1.60
 7e-05\Thermal=0.\Dipole=1.8681349,0.1699505,0.1788448\PG=C01 [X(C17H14
 Cl1N5)]\\@


 I LOVE MANKIND - IT'S PEOPLE I CAN'T STAND.
     -- LINUS OF PEANUTS
 Job cpu time:  0 days  2 hours 43 minutes 49.3 seconds.
 File lengths (MBytes):  RWF=    101 Int=      0 D2E=      0 Chk=     16 Scr=      1
 Normal termination of Gaussian 03 at Wed Jun  8 11:57:53 2016.
