 Entering Gaussian System, Link 0=g03
 Initial command:
 /share/apps//g03/l1.exe /state/partition1/mmpbsa.DO7493/Gau-7504.inp -scrdir=/state/partition1/mmpbsa.DO7493/
 Entering Link 1 = /share/apps//g03/l1.exe PID=      7505.
  
 Copyright (c) 1988,1990,1992,1993,1995,1998,2003,2004, Gaussian, Inc.
                  All Rights Reserved.
  
 This is the Gaussian(R) 03 program.  It is based on the
 the Gaussian(R) 98 system (copyright 1998, Gaussian, Inc.),
 the Gaussian(R) 94 system (copyright 1995, Gaussian, Inc.),
 the Gaussian 92(TM) system (copyright 1992, Gaussian, Inc.),
 the Gaussian 90(TM) system (copyright 1990, Gaussian, Inc.),
 the Gaussian 88(TM) system (copyright 1988, Gaussian, Inc.),
 the Gaussian 86(TM) system (copyright 1986, Carnegie Mellon
 University), and the Gaussian 82(TM) system (copyright 1983,
 Carnegie Mellon University). Gaussian is a federally registered
 trademark of Gaussian, Inc.
  
 This software contains proprietary and confidential information,
 including trade secrets, belonging to Gaussian, Inc.
  
 This software is provided under written license and may be
 used, copied, transmitted, or stored only in accord with that
 written license.
  
 The following legend is applicable only to US Government
 contracts under FAR:
  
                    RESTRICTED RIGHTS LEGEND
  
 Use, reproduction and disclosure by the US Government is
 subject to restrictions as set forth in subparagraphs (a)
 and (c) of the Commercial Computer Software - Restricted
 Rights clause in FAR 52.227-19.
  
 Gaussian, Inc.
 340 Quinnipiac St., Bldg. 40, Wallingford CT 06492
  
  
 ---------------------------------------------------------------
 Warning -- This program may not be used in any manner that
 competes with the business of Gaussian, Inc. or will provide
 assistance to any competitor of Gaussian, Inc.  The licensee
 of this program is prohibited from giving any competitor of
 Gaussian, Inc. access to this program.  By using this program,
 the user acknowledges that Gaussian, Inc. is engaged in the
 business of creating and licensing software in the field of
 computational chemistry and represents and warrants to the
 licensee that it is not a competitor of Gaussian, Inc. and that
 it will not use this program in any manner prohibited above.
 ---------------------------------------------------------------
  

 Cite this work as:
 Gaussian 03, Revision D.02,
 M. J. Frisch, G. W. Trucks, H. B. Schlegel, G. E. Scuseria, 
 M. A. Robb, J. R. Cheeseman, J. A. Montgomery, Jr., T. Vreven, 
 K. N. Kudin, J. C. Burant, J. M. Millam, S. S. Iyengar, J. Tomasi, 
 V. Barone, B. Mennucci, M. Cossi, G. Scalmani, N. Rega, 
 G. A. Petersson, H. Nakatsuji, M. Hada, M. Ehara, K. Toyota, 
 R. Fukuda, J. Hasegawa, M. Ishida, T. Nakajima, Y. Honda, O. Kitao, 
 H. Nakai, M. Klene, X. Li, J. E. Knox, H. P. Hratchian, J. B. Cross, 
 V. Bakken, C. Adamo, J. Jaramillo, R. Gomperts, R. E. Stratmann, 
 O. Yazyev, A. J. Austin, R. Cammi, C. Pomelli, J. W. Ochterski, 
 P. Y. Ayala, K. Morokuma, G. A. Voth, P. Salvador, J. J. Dannenberg, 
 V. G. Zakrzewski, S. Dapprich, A. D. Daniels, M. C. Strain, 
 O. Farkas, D. K. Malick, A. D. Rabuck, K. Raghavachari, 
 J. B. Foresman, J. V. Ortiz, Q. Cui, A. G. Baboul, S. Clifford, 
 J. Cioslowski, B. B. Stefanov, G. Liu, A. Liashenko, P. Piskorz, 
 I. Komaromi, R. L. Martin, D. J. Fox, T. Keith, M. A. Al-Laham, 
 C. Y. Peng, A. Nanayakkara, M. Challacombe, P. M. W. Gill, 
 B. Johnson, W. Chen, M. W. Wong, C. Gonzalez, and J. A. Pople, 
 Gaussian, Inc., Wallingford CT, 2004.
 
 ******************************************
 Gaussian 03:  AM64L-G03RevD.02  1-Mar-2006
                23-Sep-2015 
 ******************************************
 %chk=molecule
 ------------------------------------------------------------
 #HF/6-31G* SCF=tight Test Pop=MK iop(6/33=2) iop(6/42=6) opt
 ------------------------------------------------------------
 1/18=20,38=1/1,3;
 2/9=110,17=6,18=5,40=1/2;
 3/5=1,6=6,7=1,11=9,16=1,25=1,30=1/1,2,3;
 4//1;
 5/5=2,32=2,38=5/2;
 6/7=2,8=2,9=2,10=2,15=8,20=1,28=1,33=2,42=6/1,2;
 7//1,2,3,16;
 1/18=20/3(3);
 2/9=110/2;
 6/7=2,8=2,9=2,10=2,15=8,19=2,20=1,28=1,33=2,42=6/1,2;
 99//99;
 2/9=110/2;
 3/5=1,6=6,7=1,11=9,16=1,25=1,30=1/1,2,3;
 4/5=5,16=3/1;
 5/5=2,32=2,38=5/2;
 7//1,2,3,16;
 1/18=20/3(-5);
 2/9=110/2;
 6/7=2,8=2,9=2,10=2,15=8,19=2,20=1,28=1,33=2,42=6/1,2;
 99/9=1/99;
 ---------------------
 remark line goes here
 ---------------------
 Symbolic Z-matrix:
 Charge =  0 Multiplicity = 1
 C                     14.907    6.246     9.856 
 C                     13.961    5.21      9.216 
 C                     14.74     4.27      8.258 
 C                     14.083    2.891     8.12 
 N                     14.778    2.087     7.117 
 C                     14.182    0.993     6.47 
 C                     12.868    0.55      6.756 
 C                     12.326   -0.558     6.076 
 C                     13.087   -1.234     5.104 
 C                     14.394   -0.8       4.815 
 C                     14.937    0.308     5.495 
 C                     14.001    2.297     9.523 
 C                     14.393    0.97      9.814 
 C                     14.367    0.465     11.133 
 C                     13.958    1.333     12.169 
 C                     13.571    2.657     11.895 
 C                     13.559    3.142     10.567 
 N                     13.175    4.489     10.253 
 C                     12.021    5.061     10.708 
 C                     10.988    4.228     11.473 
 O                     11.733    6.245     10.498 
 C                     14.772   -0.926     11.421 
 C                     15.836   -1.544     10.728 
 C                     16.184   -2.871     11.033 
 C                     15.46    -3.547     12.025 
 N                     14.441   -2.98      12.701 
 C                     14.114   -1.704     12.399 
 H                     13.259    5.748     8.575 
 H                     13.062    3.057     7.771 
 H                     14.359    6.983     10.444 
 H                     15.629    5.767     10.518 
 H                     15.464    6.791     9.094 
 H                     14.839    4.75      7.283 
 H                     15.757    4.133     8.631 
 H                     15.725    2.357     6.868 
 H                     12.258    1.037     7.502 
 H                     11.322   -0.89      6.304 
 H                     12.67    -2.085     4.583 
 H                     14.983   -1.316     4.07 
 H                     15.944    0.624     5.258 
 H                     14.724    0.326     9.013 
 H                     13.953    0.995     13.197 
 H                     13.295    3.297     12.721 
 H                     9.999     4.677     11.377 
 H                     11.229    4.192     12.535 
 H                     10.919    3.212     11.085 
 H                     16.389   -1.007     9.971 
 H                     16.996   -3.363     10.516 
 H                     15.703   -4.567     12.284 
 H                     13.287   -1.294     12.959 
 

 GradGradGradGradGradGradGradGradGradGradGradGradGradGradGradGradGradGrad
 Berny optimization.
 Initialization pass.
                           ----------------------------
                           !    Initial Parameters    !
                           ! (Angstroms and Degrees)  !
 --------------------------                            --------------------------
 ! Name  Definition              Value          Derivative Info.                !
 --------------------------------------------------------------------------------
 ! R1    R(1,2)                  1.542          estimate D2E/DX2                !
 ! R2    R(1,30)                 1.0905         estimate D2E/DX2                !
 ! R3    R(1,31)                 1.0904         estimate D2E/DX2                !
 ! R4    R(1,32)                 1.0899         estimate D2E/DX2                !
 ! R5    R(2,3)                  1.5518         estimate D2E/DX2                !
 ! R6    R(2,18)                 1.4876         estimate D2E/DX2                !
 ! R7    R(2,28)                 1.0923         estimate D2E/DX2                !
 ! R8    R(3,4)                  1.5337         estimate D2E/DX2                !
 ! R9    R(3,33)                 1.0912         estimate D2E/DX2                !
 ! R10   R(3,34)                 1.0919         estimate D2E/DX2                !
 ! R11   R(4,5)                  1.4613         estimate D2E/DX2                !
 ! R12   R(4,12)                 1.5258         estimate D2E/DX2                !
 ! R13   R(4,29)                 1.0917         estimate D2E/DX2                !
 ! R14   R(5,6)                  1.4038         estimate D2E/DX2                !
 ! R15   R(5,35)                 1.0157         estimate D2E/DX2                !
 ! R16   R(6,7)                  1.4159         estimate D2E/DX2                !
 ! R17   R(6,11)                 1.4106         estimate D2E/DX2                !
 ! R18   R(7,8)                  1.4085         estimate D2E/DX2                !
 ! R19   R(7,36)                 1.0797         estimate D2E/DX2                !
 ! R20   R(8,9)                  1.4074         estimate D2E/DX2                !
 ! R21   R(8,37)                 1.0818         estimate D2E/DX2                !
 ! R22   R(9,10)                 1.4072         estimate D2E/DX2                !
 ! R23   R(9,38)                 1.0814         estimate D2E/DX2                !
 ! R24   R(10,11)                1.4089         estimate D2E/DX2                !
 ! R25   R(10,39)                1.0808         estimate D2E/DX2                !
 ! R26   R(11,40)                1.0817         estimate D2E/DX2                !
 ! R27   R(12,13)                1.414          estimate D2E/DX2                !
 ! R28   R(12,17)                1.414          estimate D2E/DX2                !
 ! R29   R(13,14)                1.4126         estimate D2E/DX2                !
 ! R30   R(13,41)                1.0798         estimate D2E/DX2                !
 ! R31   R(14,15)                1.4121         estimate D2E/DX2                !
 ! R32   R(14,22)                1.4771         estimate D2E/DX2                !
 ! R33   R(15,16)                1.4064         estimate D2E/DX2                !
 ! R34   R(15,42)                1.0822         estimate D2E/DX2                !
 ! R35   R(16,17)                1.4138         estimate D2E/DX2                !
 ! R36   R(16,43)                1.0808         estimate D2E/DX2                !
 ! R37   R(17,18)                1.4354         estimate D2E/DX2                !
 ! R38   R(18,19)                1.366          estimate D2E/DX2                !
 ! R39   R(19,20)                1.5317         estimate D2E/DX2                !
 ! R40   R(19,21)                1.2365         estimate D2E/DX2                !
 ! R41   R(20,44)                1.0904         estimate D2E/DX2                !
 ! R42   R(20,45)                1.0896         estimate D2E/DX2                !
 ! R43   R(20,46)                1.0898         estimate D2E/DX2                !
 ! R44   R(22,23)                1.4122         estimate D2E/DX2                !
 ! R45   R(22,27)                1.4123         estimate D2E/DX2                !
 ! R46   R(23,24)                1.4054         estimate D2E/DX2                !
 ! R47   R(23,47)                1.0804         estimate D2E/DX2                !
 ! R48   R(24,25)                1.4019         estimate D2E/DX2                !
 ! R49   R(24,48)                1.0811         estimate D2E/DX2                !
 ! R50   R(25,26)                1.3479         estimate D2E/DX2                !
 ! R51   R(25,49)                1.0801         estimate D2E/DX2                !
 ! R52   R(26,27)                1.3514         estimate D2E/DX2                !
 ! R53   R(27,50)                1.0796         estimate D2E/DX2                !
 ! A1    A(2,1,30)             111.6884         estimate D2E/DX2                !
 ! A2    A(2,1,31)             111.288          estimate D2E/DX2                !
 ! A3    A(2,1,32)             111.0571         estimate D2E/DX2                !
 ! A4    A(30,1,31)            107.5938         estimate D2E/DX2                !
 ! A5    A(30,1,32)            107.208          estimate D2E/DX2                !
 ! A6    A(31,1,32)            107.8022         estimate D2E/DX2                !
 ! A7    A(1,2,3)              110.8069         estimate D2E/DX2                !
 ! A8    A(1,2,18)             111.1274         estimate D2E/DX2                !
 ! A9    A(1,2,28)             107.8738         estimate D2E/DX2                !
 ! A10   A(3,2,18)             113.7023         estimate D2E/DX2                !
 ! A11   A(3,2,28)             104.9923         estimate D2E/DX2                !
 ! A12   A(18,2,28)            107.9522         estimate D2E/DX2                !
 ! A13   A(2,3,4)              112.6521         estimate D2E/DX2                !
 ! A14   A(2,3,33)             109.3094         estimate D2E/DX2                !
 ! A15   A(2,3,34)             109.4312         estimate D2E/DX2                !
 ! A16   A(4,3,33)             110.7296         estimate D2E/DX2                !
 ! A17   A(4,3,34)             108.4765         estimate D2E/DX2                !
 ! A18   A(33,3,34)            106.0164         estimate D2E/DX2                !
 ! A19   A(3,4,5)              110.6531         estimate D2E/DX2                !
 ! A20   A(3,4,12)             106.8772         estimate D2E/DX2                !
 ! A21   A(3,4,29)             107.0182         estimate D2E/DX2                !
 ! A22   A(5,4,12)             116.2638         estimate D2E/DX2                !
 ! A23   A(5,4,29)             108.0012         estimate D2E/DX2                !
 ! A24   A(12,4,29)            107.6317         estimate D2E/DX2                !
 ! A25   A(4,5,6)              122.9009         estimate D2E/DX2                !
 ! A26   A(4,5,35)             117.7377         estimate D2E/DX2                !
 ! A27   A(6,5,35)             119.3408         estimate D2E/DX2                !
 ! A28   A(5,6,7)              123.0079         estimate D2E/DX2                !
 ! A29   A(5,6,11)             118.0186         estimate D2E/DX2                !
 ! A30   A(7,6,11)             118.9732         estimate D2E/DX2                !
 ! A31   A(6,7,8)              120.3805         estimate D2E/DX2                !
 ! A32   A(6,7,36)             121.5177         estimate D2E/DX2                !
 ! A33   A(8,7,36)             118.0983         estimate D2E/DX2                !
 ! A34   A(7,8,9)              120.2115         estimate D2E/DX2                !
 ! A35   A(7,8,37)             119.7899         estimate D2E/DX2                !
 ! A36   A(9,8,37)             119.9986         estimate D2E/DX2                !
 ! A37   A(8,9,10)             119.7298         estimate D2E/DX2                !
 ! A38   A(8,9,38)             120.1442         estimate D2E/DX2                !
 ! A39   A(10,9,38)            120.1259         estimate D2E/DX2                !
 ! A40   A(9,10,11)            120.0933         estimate D2E/DX2                !
 ! A41   A(9,10,39)            120.0316         estimate D2E/DX2                !
 ! A42   A(11,10,39)           119.8751         estimate D2E/DX2                !
 ! A43   A(6,11,10)            120.6117         estimate D2E/DX2                !
 ! A44   A(6,11,40)            120.52           estimate D2E/DX2                !
 ! A45   A(10,11,40)           118.8682         estimate D2E/DX2                !
 ! A46   A(4,12,13)            122.6643         estimate D2E/DX2                !
 ! A47   A(4,12,17)            117.586          estimate D2E/DX2                !
 ! A48   A(13,12,17)           119.7068         estimate D2E/DX2                !
 ! A49   A(12,13,14)           121.5051         estimate D2E/DX2                !
 ! A50   A(12,13,41)           119.476          estimate D2E/DX2                !
 ! A51   A(14,13,41)           119.0185         estimate D2E/DX2                !
 ! A52   A(13,14,15)           118.0751         estimate D2E/DX2                !
 ! A53   A(13,14,22)           120.9081         estimate D2E/DX2                !
 ! A54   A(15,14,22)           121.0126         estimate D2E/DX2                !
 ! A55   A(14,15,16)           121.0283         estimate D2E/DX2                !
 ! A56   A(14,15,42)           120.4174         estimate D2E/DX2                !
 ! A57   A(16,15,42)           118.5458         estimate D2E/DX2                !
 ! A58   A(15,16,17)           120.5498         estimate D2E/DX2                !
 ! A59   A(15,16,43)           118.6115         estimate D2E/DX2                !
 ! A60   A(17,16,43)           120.8349         estimate D2E/DX2                !
 ! A61   A(12,17,16)           119.0689         estimate D2E/DX2                !
 ! A62   A(12,17,18)           118.8751         estimate D2E/DX2                !
 ! A63   A(16,17,18)           121.9813         estimate D2E/DX2                !
 ! A64   A(2,18,17)            117.7719         estimate D2E/DX2                !
 ! A65   A(2,18,19)            118.3989         estimate D2E/DX2                !
 ! A66   A(17,18,19)           123.0987         estimate D2E/DX2                !
 ! A67   A(18,19,20)           120.5554         estimate D2E/DX2                !
 ! A68   A(18,19,21)           122.7633         estimate D2E/DX2                !
 ! A69   A(20,19,21)           116.6466         estimate D2E/DX2                !
 ! A70   A(19,20,44)           110.1076         estimate D2E/DX2                !
 ! A71   A(19,20,45)           110.8295         estimate D2E/DX2                !
 ! A72   A(19,20,46)           111.8331         estimate D2E/DX2                !
 ! A73   A(44,20,45)           107.4597         estimate D2E/DX2                !
 ! A74   A(44,20,46)           107.1657         estimate D2E/DX2                !
 ! A75   A(45,20,46)           109.2826         estimate D2E/DX2                !
 ! A76   A(14,22,23)           121.5344         estimate D2E/DX2                !
 ! A77   A(14,22,27)           121.7367         estimate D2E/DX2                !
 ! A78   A(23,22,27)           116.7288         estimate D2E/DX2                !
 ! A79   A(22,23,24)           119.5567         estimate D2E/DX2                !
 ! A80   A(22,23,47)           120.7957         estimate D2E/DX2                !
 ! A81   A(24,23,47)           119.6465         estimate D2E/DX2                !
 ! A82   A(23,24,25)           118.7516         estimate D2E/DX2                !
 ! A83   A(23,24,48)           120.7927         estimate D2E/DX2                !
 ! A84   A(25,24,48)           120.4555         estimate D2E/DX2                !
 ! A85   A(24,25,26)           122.8528         estimate D2E/DX2                !
 ! A86   A(24,25,49)           120.5903         estimate D2E/DX2                !
 ! A87   A(26,25,49)           116.5569         estimate D2E/DX2                !
 ! A88   A(25,26,27)           117.9068         estimate D2E/DX2                !
 ! A89   A(22,27,26)           124.2033         estimate D2E/DX2                !
 ! A90   A(22,27,50)           120.4544         estimate D2E/DX2                !
 ! A91   A(26,27,50)           115.3407         estimate D2E/DX2                !
 ! D1    D(30,1,2,3)           173.6131         estimate D2E/DX2                !
 ! D2    D(30,1,2,18)          -58.952          estimate D2E/DX2                !
 ! D3    D(30,1,2,28)           59.1997         estimate D2E/DX2                !
 ! D4    D(31,1,2,3)           -66.1165         estimate D2E/DX2                !
 ! D5    D(31,1,2,18)           61.3184         estimate D2E/DX2                !
 ! D6    D(31,1,2,28)          179.4701         estimate D2E/DX2                !
 ! D7    D(32,1,2,3)            53.9905         estimate D2E/DX2                !
 ! D8    D(32,1,2,18)         -178.5746         estimate D2E/DX2                !
 ! D9    D(32,1,2,28)          -60.4229         estimate D2E/DX2                !
 ! D10   D(1,2,3,4)            152.818          estimate D2E/DX2                !
 ! D11   D(1,2,3,33)           -83.6345         estimate D2E/DX2                !
 ! D12   D(1,2,3,34)            32.0631         estimate D2E/DX2                !
 ! D13   D(18,2,3,4)            26.807          estimate D2E/DX2                !
 ! D14   D(18,2,3,33)          150.3545         estimate D2E/DX2                !
 ! D15   D(18,2,3,34)          -93.948          estimate D2E/DX2                !
 ! D16   D(28,2,3,4)           -90.9714         estimate D2E/DX2                !
 ! D17   D(28,2,3,33)           32.5761         estimate D2E/DX2                !
 ! D18   D(28,2,3,34)          148.2737         estimate D2E/DX2                !
 ! D19   D(1,2,18,17)         -104.5685         estimate D2E/DX2                !
 ! D20   D(1,2,18,19)           84.9145         estimate D2E/DX2                !
 ! D21   D(3,2,18,17)           21.273          estimate D2E/DX2                !
 ! D22   D(3,2,18,19)         -149.244          estimate D2E/DX2                !
 ! D23   D(28,2,18,17)         137.3272         estimate D2E/DX2                !
 ! D24   D(28,2,18,19)         -33.1898         estimate D2E/DX2                !
 ! D25   D(2,3,4,5)            174.7194         estimate D2E/DX2                !
 ! D26   D(2,3,4,12)           -57.7968         estimate D2E/DX2                !
 ! D27   D(2,3,4,29)            57.2834         estimate D2E/DX2                !
 ! D28   D(33,3,4,5)            51.964          estimate D2E/DX2                !
 ! D29   D(33,3,4,12)          179.4479         estimate D2E/DX2                !
 ! D30   D(33,3,4,29)          -65.4719         estimate D2E/DX2                !
 ! D31   D(34,3,4,5)           -63.9806         estimate D2E/DX2                !
 ! D32   D(34,3,4,12)           63.5032         estimate D2E/DX2                !
 ! D33   D(34,3,4,29)          178.5834         estimate D2E/DX2                !
 ! D34   D(3,4,5,6)           -158.7917         estimate D2E/DX2                !
 ! D35   D(3,4,5,35)            19.5451         estimate D2E/DX2                !
 ! D36   D(12,4,5,6)            79.0695         estimate D2E/DX2                !
 ! D37   D(12,4,5,35)         -102.5937         estimate D2E/DX2                !
 ! D38   D(29,4,5,6)           -41.9609         estimate D2E/DX2                !
 ! D39   D(29,4,5,35)          136.3758         estimate D2E/DX2                !
 ! D40   D(3,4,12,13)         -133.043          estimate D2E/DX2                !
 ! D41   D(3,4,12,17)           44.5628         estimate D2E/DX2                !
 ! D42   D(5,4,12,13)           -8.9374         estimate D2E/DX2                !
 ! D43   D(5,4,12,17)          168.6684         estimate D2E/DX2                !
 ! D44   D(29,4,12,13)         112.2896         estimate D2E/DX2                !
 ! D45   D(29,4,12,17)         -70.1046         estimate D2E/DX2                !
 ! D46   D(4,5,6,7)             -1.6875         estimate D2E/DX2                !
 ! D47   D(4,5,6,11)           178.5222         estimate D2E/DX2                !
 ! D48   D(35,5,6,7)          -179.9987         estimate D2E/DX2                !
 ! D49   D(35,5,6,11)            0.211          estimate D2E/DX2                !
 ! D50   D(5,6,7,8)           -179.7755         estimate D2E/DX2                !
 ! D51   D(5,6,7,36)            -0.4737         estimate D2E/DX2                !
 ! D52   D(11,6,7,8)             0.0129         estimate D2E/DX2                !
 ! D53   D(11,6,7,36)          179.3147         estimate D2E/DX2                !
 ! D54   D(5,6,11,10)          179.803          estimate D2E/DX2                !
 ! D55   D(5,6,11,40)           -0.0943         estimate D2E/DX2                !
 ! D56   D(7,6,11,10)            0.004          estimate D2E/DX2                !
 ! D57   D(7,6,11,40)         -179.8933         estimate D2E/DX2                !
 ! D58   D(6,7,8,9)             -0.0701         estimate D2E/DX2                !
 ! D59   D(6,7,8,37)           179.8327         estimate D2E/DX2                !
 ! D60   D(36,7,8,9)          -179.3953         estimate D2E/DX2                !
 ! D61   D(36,7,8,37)            0.5075         estimate D2E/DX2                !
 ! D62   D(7,8,9,10)             0.1097         estimate D2E/DX2                !
 ! D63   D(7,8,9,38)           179.9607         estimate D2E/DX2                !
 ! D64   D(37,8,9,10)         -179.7929         estimate D2E/DX2                !
 ! D65   D(37,8,9,38)            0.0581         estimate D2E/DX2                !
 ! D66   D(8,9,10,11)           -0.0927         estimate D2E/DX2                !
 ! D67   D(8,9,10,39)          179.9538         estimate D2E/DX2                !
 ! D68   D(38,9,10,11)        -179.9437         estimate D2E/DX2                !
 ! D69   D(38,9,10,39)           0.1028         estimate D2E/DX2                !
 ! D70   D(9,10,11,6)            0.0361         estimate D2E/DX2                !
 ! D71   D(9,10,11,40)         179.9351         estimate D2E/DX2                !
 ! D72   D(39,10,11,6)         179.9896         estimate D2E/DX2                !
 ! D73   D(39,10,11,40)         -0.1114         estimate D2E/DX2                !
 ! D74   D(4,12,13,14)         176.9351         estimate D2E/DX2                !
 ! D75   D(4,12,13,41)          -2.8266         estimate D2E/DX2                !
 ! D76   D(17,12,13,14)         -0.6217         estimate D2E/DX2                !
 ! D77   D(17,12,13,41)        179.6166         estimate D2E/DX2                !
 ! D78   D(4,12,17,16)        -175.069          estimate D2E/DX2                !
 ! D79   D(4,12,17,18)           1.8497         estimate D2E/DX2                !
 ! D80   D(13,12,17,16)          2.6105         estimate D2E/DX2                !
 ! D81   D(13,12,17,18)        179.5292         estimate D2E/DX2                !
 ! D82   D(12,13,14,15)         -1.0916         estimate D2E/DX2                !
 ! D83   D(12,13,14,22)        179.6435         estimate D2E/DX2                !
 ! D84   D(41,13,14,15)        178.6711         estimate D2E/DX2                !
 ! D85   D(41,13,14,22)         -0.5938         estimate D2E/DX2                !
 ! D86   D(13,14,15,16)          0.803          estimate D2E/DX2                !
 ! D87   D(13,14,15,42)       -178.1176         estimate D2E/DX2                !
 ! D88   D(22,14,15,16)       -179.9329         estimate D2E/DX2                !
 ! D89   D(22,14,15,42)          1.1465         estimate D2E/DX2                !
 ! D90   D(13,14,22,23)         36.9677         estimate D2E/DX2                !
 ! D91   D(13,14,22,27)       -142.8852         estimate D2E/DX2                !
 ! D92   D(15,14,22,23)       -142.2755         estimate D2E/DX2                !
 ! D93   D(15,14,22,27)         37.8716         estimate D2E/DX2                !
 ! D94   D(14,15,16,17)          1.2043         estimate D2E/DX2                !
 ! D95   D(14,15,16,43)       -178.0861         estimate D2E/DX2                !
 ! D96   D(42,15,16,17)       -179.8554         estimate D2E/DX2                !
 ! D97   D(42,15,16,43)          0.8543         estimate D2E/DX2                !
 ! D98   D(15,16,17,12)         -2.9132         estimate D2E/DX2                !
 ! D99   D(15,16,17,18)       -179.7321         estimate D2E/DX2                !
 ! D100  D(43,16,17,12)        176.3612         estimate D2E/DX2                !
 ! D101  D(43,16,17,18)         -0.4576         estimate D2E/DX2                !
 ! D102  D(12,17,18,2)         -37.4359         estimate D2E/DX2                !
 ! D103  D(12,17,18,19)        132.6017         estimate D2E/DX2                !
 ! D104  D(16,17,18,2)         139.3889         estimate D2E/DX2                !
 ! D105  D(16,17,18,19)        -50.5735         estimate D2E/DX2                !
 ! D106  D(2,18,19,20)         163.4882         estimate D2E/DX2                !
 ! D107  D(2,18,19,21)         -14.2976         estimate D2E/DX2                !
 ! D108  D(17,18,19,20)         -6.4905         estimate D2E/DX2                !
 ! D109  D(17,18,19,21)        175.7237         estimate D2E/DX2                !
 ! D110  D(18,19,20,44)       -155.2878         estimate D2E/DX2                !
 ! D111  D(18,19,20,45)         85.9526         estimate D2E/DX2                !
 ! D112  D(18,19,20,46)        -36.2588         estimate D2E/DX2                !
 ! D113  D(21,19,20,44)         22.629          estimate D2E/DX2                !
 ! D114  D(21,19,20,45)        -96.1305         estimate D2E/DX2                !
 ! D115  D(21,19,20,46)        141.658          estimate D2E/DX2                !
 ! D116  D(14,22,23,24)       -179.8257         estimate D2E/DX2                !
 ! D117  D(14,22,23,47)          0.5507         estimate D2E/DX2                !
 ! D118  D(27,22,23,24)          0.0342         estimate D2E/DX2                !
 ! D119  D(27,22,23,47)       -179.5894         estimate D2E/DX2                !
 ! D120  D(14,22,27,26)        179.8825         estimate D2E/DX2                !
 ! D121  D(14,22,27,50)          0.3695         estimate D2E/DX2                !
 ! D122  D(23,22,27,26)          0.0229         estimate D2E/DX2                !
 ! D123  D(23,22,27,50)       -179.4901         estimate D2E/DX2                !
 ! D124  D(22,23,24,25)         -0.0708         estimate D2E/DX2                !
 ! D125  D(22,23,24,48)       -179.9041         estimate D2E/DX2                !
 ! D126  D(47,23,24,25)        179.5571         estimate D2E/DX2                !
 ! D127  D(47,23,24,48)         -0.2762         estimate D2E/DX2                !
 ! D128  D(23,24,25,26)          0.0546         estimate D2E/DX2                !
 ! D129  D(23,24,25,49)       -179.922          estimate D2E/DX2                !
 ! D130  D(48,24,25,26)        179.8885         estimate D2E/DX2                !
 ! D131  D(48,24,25,49)         -0.0881         estimate D2E/DX2                !
 ! D132  D(24,25,26,27)          0.0007         estimate D2E/DX2                !
 ! D133  D(49,25,26,27)        179.9782         estimate D2E/DX2                !
 ! D134  D(25,26,27,22)         -0.0407         estimate D2E/DX2                !
 ! D135  D(25,26,27,50)        179.4948         estimate D2E/DX2                !
 --------------------------------------------------------------------------------
 Trust Radius=3.00D-01 FncErr=1.00D-07 GrdErr=1.00D-07
 Number of steps in this run= 289 maximum allowed number of steps= 300.
 GradGradGradGradGradGradGradGradGradGradGradGradGradGradGradGradGradGrad

                          Input orientation:                          
 ---------------------------------------------------------------------
 Center     Atomic     Atomic              Coordinates (Angstroms)
 Number     Number      Type              X           Y           Z
 ---------------------------------------------------------------------
    1          6             0       14.907000    6.246000    9.856000
    2          6             0       13.961000    5.210000    9.216000
    3          6             0       14.740000    4.270000    8.258000
    4          6             0       14.083000    2.891000    8.120000
    5          7             0       14.778000    2.087000    7.117000
    6          6             0       14.182000    0.993000    6.470000
    7          6             0       12.868000    0.550000    6.756000
    8          6             0       12.326000   -0.558000    6.076000
    9          6             0       13.087000   -1.234000    5.104000
   10          6             0       14.394000   -0.800000    4.815000
   11          6             0       14.937000    0.308000    5.495000
   12          6             0       14.001000    2.297000    9.523000
   13          6             0       14.393000    0.970000    9.814000
   14          6             0       14.367000    0.465000   11.133000
   15          6             0       13.958000    1.333000   12.169000
   16          6             0       13.571000    2.657000   11.895000
   17          6             0       13.559000    3.142000   10.567000
   18          7             0       13.175000    4.489000   10.253000
   19          6             0       12.021000    5.061000   10.708000
   20          6             0       10.988000    4.228000   11.473000
   21          8             0       11.733000    6.245000   10.498000
   22          6             0       14.772000   -0.926000   11.421000
   23          6             0       15.836000   -1.544000   10.728000
   24          6             0       16.184000   -2.871000   11.033000
   25          6             0       15.460000   -3.547000   12.025000
   26          7             0       14.441000   -2.980000   12.701000
   27          6             0       14.114000   -1.704000   12.399000
   28          1             0       13.259000    5.748000    8.575000
   29          1             0       13.062000    3.057000    7.771000
   30          1             0       14.359000    6.983000   10.444000
   31          1             0       15.629000    5.767000   10.518000
   32          1             0       15.464000    6.791000    9.094000
   33          1             0       14.839000    4.750000    7.283000
   34          1             0       15.757000    4.133000    8.631000
   35          1             0       15.725000    2.357000    6.868000
   36          1             0       12.258000    1.037000    7.502000
   37          1             0       11.322000   -0.890000    6.304000
   38          1             0       12.670000   -2.085000    4.583000
   39          1             0       14.983000   -1.316000    4.070000
   40          1             0       15.944000    0.624000    5.258000
   41          1             0       14.724000    0.326000    9.013000
   42          1             0       13.953000    0.995000   13.197000
   43          1             0       13.295000    3.297000   12.721000
   44          1             0        9.999000    4.677000   11.377000
   45          1             0       11.229000    4.192000   12.535000
   46          1             0       10.919000    3.212000   11.085000
   47          1             0       16.389000   -1.007000    9.971000
   48          1             0       16.996000   -3.363000   10.516000
   49          1             0       15.703000   -4.567000   12.284000
   50          1             0       13.287000   -1.294000   12.959000
 ---------------------------------------------------------------------
                    Distance matrix (angstroms):
                    1          2          3          4          5
     1  C    0.000000
     2  C    1.542016   0.000000
     3  C    2.546776   1.551839   0.000000
     4  C    3.866354   2.567851   1.533732   0.000000
     5  N    4.981570   3.850509   2.463496   1.461318   0.000000
     6  C    6.291632   5.037107   3.774525   2.516884   1.403802
     7  C    6.797936   5.381621   4.427052   2.969344   2.478062
     8  C    8.200267   6.767765   5.822208   4.377281   3.753933
     9  C    9.046784   7.693995   6.555466   5.206140   4.235645
    10  C    8.678765   7.461661   6.138311   4.964194   3.712335
    11  C    7.367433   6.231213   4.834296   3.780454   2.412676
    12  C    4.065258   2.929406   2.457453   1.525768   2.537058
    13  C    5.301145   4.303699   3.664907   2.579918   2.944439
    14  C    5.944938   5.133688   4.783595   3.878698   4.350639
    15  C    5.512544   4.873535   4.953122   4.340206   5.173357
    16  C    4.338587   3.721149   4.146818   3.816743   4.960951
    17  C    3.457953   2.502684   2.828184   2.515032   3.808082
    18  N    2.498896   1.487618   2.545037   2.815627   4.263063
    19  C    3.234057   2.451910   3.744482   3.957081   5.416734
    20  C    4.695271   3.859676   4.941204   4.754914   6.158142
    21  O    3.238277   2.771053   4.237956   4.735684   6.163777
    22  C    7.342005   6.570407   6.083092   5.093212   5.253820
    23  C    7.893512   7.170654   6.411296   5.435430   5.229039
    24  C    9.280935   8.575884   7.796130   6.789729   6.472531
    25  C   10.045557   9.317861   8.707134   7.654606   7.503036
    26  N    9.665933   8.913570   8.508358   7.455358   7.547789
    27  C    8.384402   7.613034   7.295782   6.278919   6.535450
    28  H    2.145896   1.092304   2.116207   3.008064   4.223274
    29  H    4.233317   2.744382   2.127022   1.091695   2.076842
    30  H    1.090512   2.193152   3.504872   4.713981   5.934249
    31  H    1.090399   2.188076   2.852881   4.051160   5.082657
    32  H    1.089917   2.184824   2.752910   4.250393   5.148470
    33  H    2.977074   2.172320   1.091250   2.174393   2.668866
    34  H    2.586096   2.174344   1.091873   2.146150   2.727041
    35  H    4.972081   4.094436   2.561619   2.132797   1.015731
    36  H    6.300174   4.822026   4.145377   2.673923   2.757014
    37  H    8.740219   7.256312   6.490488   5.021647   4.633296
    38  H   10.110107   8.737757   7.627355   6.266380   5.316992
    39  H    9.521944   8.373439   6.985828   5.908583   4.572378
    40  H    7.336474   6.374123   4.872672   4.098006   2.637386
    41  H    5.982519   4.947407   4.015647   2.790619   2.588214
    42  H    6.296459   5.797814   5.978187   5.421037   6.232134
    43  H    4.416262   4.048228   4.790942   4.685614   5.921841
    44  H    5.372492   4.544387   5.689542   5.520589   6.906123
    45  H    4.992358   4.417681   5.534070   5.415731   6.810371
    46  H    5.159432   4.091324   4.869429   4.348007   5.648232
    47  H    7.403753   6.716867   5.787944   4.892672   4.507047
    48  H    9.855577   9.186814   8.273499   7.303349   6.795235
    49  H   11.110795  10.394081   9.758515   8.693967   8.475213
    50  H    8.312918   7.534344   7.427564   6.446996   6.912540
                    6          7          8          9         10
     6  C    0.000000
     7  C    1.415853   0.000000
     8  C    2.450627   1.408484   0.000000
     9  C    2.832757   2.441254   1.407438   0.000000
    10  C    2.449248   2.814011   2.434196   1.407169   0.000000
    11  C    1.410629   2.435045   2.811554   2.439907   1.408869
    12  C    3.324754   3.462945   4.778960   5.729827   5.648993
    13  C    3.350729   3.442875   4.536509   5.361656   5.303103
    14  C    4.696443   4.627349   5.548465   6.393265   6.443452
    15  C    5.713526   5.576895   6.585131   7.567189   7.669492
    16  C    5.707262   5.598480   6.763654   7.841672   7.921779
    17  C    4.668162   4.660436   5.948056   7.015449   7.022969
    18  N    5.248538   5.276266   6.606083   7.698875   7.683185
    19  C    6.259328   6.056801   7.288457   8.495187   8.643489
    20  C    6.759946   6.269942   7.336460   8.648896   9.011692
    21  O    7.057329   6.908242   8.135511   9.320085   9.434481
    22  C    5.342571   5.250335   5.889598   6.545119   6.618005
    23  C    5.225194   5.382438   5.910448   6.267573   6.131596
    24  C    6.305511   6.402486   6.693727   6.886524   6.793870
    25  C    7.287174   7.160044   7.358443   7.673418   7.788868
    26  N    7.394401   7.090716   7.364098   7.911779   8.181907
    27  C    6.513945   6.202941   6.670127   7.381914   7.642818
    28  H    5.281380   5.520946   6.846979   7.799086   7.635583
    29  H    2.684604   2.711625   4.059919   5.052345   5.038711
    30  H    7.190557   7.563591   8.948698   9.881937   9.605309
    31  H    6.424266   6.999490   8.405165   9.207994   8.784926
    32  H    6.491972   7.152310   8.541848   9.272047   8.779409
    33  H    3.899701   4.669322   5.995572   6.604983   6.090283
    34  H    4.124336   4.969893   6.348643   6.955093   6.383895
    35  H    2.097558   3.382343   4.547273   4.792288   3.994123
    36  H    2.183744   1.079715   2.140590   3.405156   3.893204
    37  H    3.428242   2.160560   1.081769   2.161842   3.415026
    38  H    3.914205   3.421163   2.163126   1.081449   2.162689
    39  H    3.425359   3.894840   3.414418   2.161179   1.080834
    40  H    2.170196   3.422171   3.893093   3.411500   2.150936
    41  H    2.684307   2.930693   3.893306   4.515933   4.358897
    42  H    6.730897   6.546887   7.467769   8.438901   8.583381
    43  H    6.720877   6.581000   7.743127   8.865208   8.972070
    44  H    7.426170   6.827659   7.805175   9.155665   9.611108
    45  H    7.465791   7.024765   8.092255   9.386874   9.722947
    46  H    6.072014   5.442893   6.425156   7.761411   8.214905
    47  H    4.596504   5.015767   5.646290   5.885781   5.532378
    48  H    6.577496   6.818325   7.027839   7.007329   6.770582
    49  H    8.187163   8.048584   8.124991   8.336951   8.466979
    50  H    6.938192   6.484837   6.988627   7.857775   8.233725
                   11         12         13         14         15
    11  C    0.000000
    12  C    4.588791   0.000000
    13  C    4.403174   1.413957   0.000000
    14  C    5.668915   2.466228   1.412608   0.000000
    15  C    6.822854   2.816462   2.422193   1.412091   0.000000
    16  C    6.952967   2.437393   2.802180   2.453390   1.406350
    17  C    5.971233   1.413975   2.445434   2.852989   2.449099
    18  N    6.574494   2.453577   3.749614   4.288104   3.774186
    19  C    7.633442   3.600600   4.812681   5.177601   4.447974
    20  C    8.166853   4.075467   4.996085   5.068867   4.205513
    21  O    8.399023   4.656303   5.947191   6.383540   5.645406
    22  C    6.055366   3.818976   2.514141   1.477109   2.514991
    23  C    5.623379   4.424085   3.039382   2.521521   3.725653
    24  C    6.506189   5.809803   4.409867   3.800051   4.890725
    25  C    7.601017   6.522348   5.141041   4.252818   5.107949
    26  N    7.936208   6.175760   4.892808   3.785779   4.372446
    27  C    7.238141   4.928706   3.729657   2.524149   3.049689
    28  H    6.472688   3.654951   5.064619   5.973367   5.735648
    29  H    4.031476   2.128104   3.209514   4.441231   4.808055
    30  H    8.329604   4.789050   6.046009   6.554320   5.921058
    31  H    7.450508   3.959963   5.003451   5.484713   5.017808
    32  H    7.433695   4.745571   5.962339   6.736409   6.443091
    33  H    4.789354   3.425938   4.570916   5.779836   6.027026
    34  H    5.013733   2.692600   3.642054   4.652561   4.857350
    35  H    2.589300   3.166197   3.518083   4.859429   5.680798
    36  H    3.425862   2.951286   3.147707   4.237833   4.975792
    37  H    3.893316   5.262696   5.021030   5.867477   6.803562
    38  H    3.420158   6.736252   6.298025   7.230824   8.419564
    39  H    2.161045   6.614628   6.210268   7.310088   8.582635
    40  H    1.081700   4.976385   4.825189   6.085050   7.225566
    41  H    3.524488   2.160479   1.079768   2.154337   3.400168
    42  H    7.794936   3.898177   3.411585   2.170804   1.082152
    43  H    7.990329   3.424272   3.882162   3.419233   2.145127
    44  H    8.835719   5.011758   5.957521   6.072883   5.242450
    45  H    8.854170   4.510782   5.272193   5.069830   3.969292
    46  H    7.471656   3.574324   4.325584   4.408743   3.733794
    47  H    4.885909   4.101178   2.813751   2.757809   4.026980
    48  H    6.551806   6.480098   5.103264   4.684647   5.832175
    49  H    8.393027   7.591734   6.202852   5.332047   6.153718
    50  H    7.810262   5.021073   4.029883   2.755859   2.824087
                   16         17         18         19         20
    16  C    0.000000
    17  C    1.413843   0.000000
    18  N    2.491827   1.435431   0.000000
    19  C    3.096883   2.463308   1.365989   0.000000
    20  C    3.052542   2.934327   2.517834   1.531732   0.000000
    21  O    4.266567   3.601062   2.285372   1.236487   2.360919
    22  C    3.808539   4.330047   5.765142   6.627257   6.394144
    23  C    4.913300   5.212413   6.610872   7.627624   7.574570
    24  C    6.174917   6.577534   7.989498   8.963973   8.808395
    25  C    6.486512   7.105089   8.540404   9.362632   8.986329
    26  N    5.760408   6.542994   7.961245   8.630535   8.086189
    27  C    4.423481   5.210371   6.621200   7.280478   6.768898
    28  H    4.546870   3.293828   2.099481   2.560137   3.983246
    29  H    4.174501   2.841100   2.867702   3.704817   4.401991
    30  H    4.630402   3.925355   2.767377   3.038095   4.473534
    31  H    3.975373   3.343341   2.779501   3.681331   4.981910
    32  H    5.340319   4.371951   3.447029   4.177576   5.680069
    33  H    5.221017   3.874109   3.414369   4.446175   5.714787
    34  H    4.196530   3.092148   3.069909   4.374107   5.552418
    35  H    5.477266   4.357796   4.744065   5.981374   6.866282
    36  H    4.862799   3.939270   4.508347   5.150454   5.250164
    37  H    6.992746   6.279678   6.925450   7.436277   7.281761
    38  H    8.761490   7.995005   8.696057   9.434095   9.495009
    39  H    8.888706   8.007031   8.671585   9.669675  10.074739
    40  H    7.335802   6.341453   6.896058   8.048565   8.727942
    41  H    3.881867   3.420818   4.611678   5.709594   5.935899
    42  H    2.145547   3.417857   4.634701   5.143938   4.713352
    43  H    1.080765   2.175646   2.743408   2.964277   2.783256
    44  H    4.136171   3.960546   3.374270   2.164140   1.090384
    45  H    2.872419   3.225589   3.013743   2.172638   1.089597
    46  H    2.827937   2.691250   2.722589   2.185254   1.089753
    47  H    5.006775   5.057501   6.373016   7.512870   7.670204
    48  H    7.062058   7.357350   8.736310   9.785258   9.728062
    49  H    7.542077   8.183734   9.619089  10.427813  10.012041
    50  H    4.101604   5.047152   6.385771   6.859722   6.163285
                   21         22         23         24         25
    21  O    0.000000
    22  C    7.842875   0.000000
    23  C    8.806590   1.412186   0.000000
    24  C   10.158695   2.434607   1.405368   0.000000
    25  C   10.587990   2.776293   2.415697   1.401862   0.000000
    26  N    9.863422   2.442719   2.810845   2.414985   1.347897
    27  C    8.512906   1.412350   2.404813   2.740939   2.312626
    28  H    2.504718   7.411556   8.028051   9.427860  10.155980
    29  H    4.400695   5.666647   6.132546   7.451759   8.213388
    30  H    2.728266   7.979811   8.658632  10.038868  10.704796
    31  H    3.925264   6.807798   7.316944   8.671118   9.436642
    32  H    4.023642   8.089863   8.501798   9.880909  10.745465
    33  H    4.713649   7.024565   7.244064   8.599486   9.576660
    34  H    4.913126   5.860700   6.052436   7.416734   8.401776
    35  H    6.650527   5.693514   5.489055   6.699992   7.843602
    36  H    6.031161   5.052932   5.465411   6.569163   7.191897
    37  H    8.286542   6.171506   6.354187   7.065893   7.544040
    38  H   10.259342   7.247063   6.933777   7.387049   8.081145
    39  H   10.442720   7.364362   6.716290   7.234901   8.275682
    40  H    8.762749   6.462094   5.884963   6.754499   7.963905
    41  H    6.796018   2.714456   2.770319   4.053740   4.961247
    42  H    6.306782   2.741382   4.011006   4.960465   4.926905
    43  H    4.009024   4.658890   5.819279   7.017114   7.211933
    44  H    2.497603   7.360508   8.555268   9.764470   9.893260
    45  H    2.935676   6.323588   7.575711   8.757511   8.834794
    46  H    3.194723   5.664058   6.850100   8.045236   8.196851
    47  H    8.634093   2.173419   1.080383   2.155079   3.396109
    48  H   10.955052   3.421136   2.167788   1.081063   2.161072
    49  H   11.655473   3.855958   3.402551   2.161661   1.080060
    50  H    8.081334   2.169353   3.396655   3.819557   3.266542
                   26         27         28         29         30
    26  N    0.000000
    27  C    1.351410   0.000000
    28  H    9.726201   8.419401   0.000000
    29  H    7.915296   6.722515   2.815441   0.000000
    30  H   10.215779   8.907638   2.495673   4.923476   0.000000
    31  H    9.093231   7.851702   3.064720   4.634609   1.759839
    32  H   10.465630   9.214692   2.493839   4.632784   1.755104
    33  H    9.448070   8.267599   2.271930   2.502423   3.899822
    34  H    8.300092   7.139177   2.975124   3.026615   3.655663
    35  H    8.009751   7.048333   4.527017   2.897754   6.004466
    36  H    6.923249   5.910874   4.934253   2.190702   6.958770
    37  H    7.417403   6.753287   7.278218   4.556149   9.399314
    38  H    8.356996   7.957396   8.811292   6.062769  10.928525
    39  H    8.806635   8.383194   8.553788   6.042414  10.482874
    40  H    8.405122   7.730612   6.668365   4.532172   8.357254
    41  H    4.960954   3.994746   5.633485   3.429748   6.818844
    42  H    4.035441   2.819100   6.665998   5.872580   6.603029
    43  H    6.380787   5.077839   4.816432   4.961289   4.461325
    44  H    8.950642   7.661258   4.430107   5.000960   5.019734
    45  H    7.860158   6.565405   4.714195   5.229131   4.686028
    46  H    7.304574   6.008467   4.266966   3.949566   5.144407
    47  H    3.891058   3.399503   7.574678   5.694298   8.257404
    48  H    3.383628   3.821504  10.037080   8.014224  10.677016
    49  H    2.070049   3.276418  11.230719   9.244859  11.772614
    50  H    2.059339   1.079643   8.295180   6.774745   8.716831
                   31         32         33         34         35
    31  H    0.000000
    32  H    1.761697   0.000000
    33  H    3.481898   2.799290   0.000000
    34  H    2.499422   2.713887   1.743708   0.000000
    35  H    4.995980   4.968255   2.585279   2.502672   0.000000
    36  H    6.544677   6.776534   4.527239   4.806543   3.763568
    37  H    8.979070   9.161770   6.718432   7.093284   5.499774
    38  H   10.277831  10.341128   7.662362   8.036131   5.855392
    39  H    9.600152   9.549628   6.865891   7.147965   4.676569
    40  H    7.363238   7.278543   4.727105   4.870850   2.375574
    41  H    5.717388   6.507717   4.751621   3.963113   3.118972
    42  H    5.723461   7.260258   7.061191   5.826647   6.712024
    43  H    4.049897   5.483405   5.836693   4.846487   6.406724
    44  H    5.798524   6.288665   6.339698   6.402423   7.648566
    45  H    5.090080   6.044047   6.397419   5.978920   7.462984
    46  H    5.388285   6.118035   5.673363   5.502418   6.450717
    47  H    6.838412   7.901491   6.539946   5.349264   4.624500
    48  H    9.231771  10.366910   8.995872   7.828050   6.902300
    49  H   10.484073  11.799889  10.609570   9.435959   8.790638
    50  H    7.829506   9.221973   8.435379   7.367823   7.508257
                   36         37         38         39         40
    36  H    0.000000
    37  H    2.454512   0.000000
    38  H    4.293855   2.491379   0.000000
    39  H    4.974018   4.309890   2.490883   0.000000
    40  H    4.335055   4.974856   4.302718   2.469507   0.000000
    41  H    2.978221   4.515633   5.445800   5.215026   3.959448
    42  H    5.942038   7.615040   9.237613   9.471206   8.193256
    43  H    5.781084   7.912116   9.776686   9.948312   8.358140
    44  H    5.776531   7.647035   9.950745  10.684033   9.445210
    45  H    6.028595   8.041190  10.232864  10.774359   9.376384
    46  H    4.400163   6.312430   8.567392   9.285963   8.118023
    47  H    5.228677   6.255803   6.635027   6.074053   5.007051
    48  H    7.133922   7.486718   7.453056   7.056436   6.682023
    49  H    8.132673   8.274895   8.640880   8.863250   8.738949
    50  H    6.022562   6.950789   8.435861   9.049377   8.369216
                   41         42         43         44         45
    41  H    0.000000
    42  H    4.306722   0.000000
    43  H    4.961668   2.441054   0.000000
    44  H    6.844364   5.701196   3.817637   0.000000
    45  H    6.290109   4.251968   2.259198   1.757580   0.000000
    46  H    5.205786   4.310544   2.886017   1.754391   1.777358
    47  H    2.338136   4.511006   5.971579   8.666994   7.760754
    48  H    4.585817   5.953131   7.931899  10.693032   9.716618
    49  H    5.966517   5.901857   8.236014  10.899991   9.838687
    50  H    4.501143   2.395771   4.597172   6.997607   5.874635
                   46         47         48         49         50
    46  H    0.000000
    47  H    6.997275   0.000000
    48  H    8.971305   2.493233   0.000000
    49  H    9.210706   4.300484   2.499458   0.000000
    50  H    5.424328   4.316586   4.899560   4.123737   0.000000
 Stoichiometry    C23H23N3O
 Framework group  C1[X(C23H23N3O)]
 Deg. of freedom   144
 Full point group                 C1
 Largest Abelian subgroup         C1      NOp   1
 Largest concise Abelian subgroup C1      NOp   1
                         Standard orientation:                         
 ---------------------------------------------------------------------
 Center     Atomic     Atomic              Coordinates (Angstroms)
 Number     Number      Type              X           Y           Z
 ---------------------------------------------------------------------
    1          6             0        4.407222   -0.287002   -2.049706
    2          6             0        3.602550    0.341936   -0.894392
    3          6             0        2.478193    1.260750   -1.441940
    4          6             0        1.287616    1.373738   -0.481682
    5          7             0        0.313726    2.342621   -0.979933
    6          6             0       -0.629383    2.970828   -0.151341
    7          6             0       -0.744000    2.696467    1.232938
    8          6             0       -1.714331    3.356331    2.011954
    9          6             0       -2.578341    4.296456    1.419894
   10          6             0       -2.470922    4.573700    0.044495
   11          6             0       -1.500825    3.913818   -0.735492
   12          6             0        0.771519   -0.042847   -0.247380
   13          6             0       -0.601042   -0.375815   -0.314328
   14          6             0       -1.046261   -1.707074   -0.156239
   15          6             0       -0.076080   -2.712301    0.049358
   16          6             0        1.292905   -2.396493    0.112334
   17          6             0        1.727306   -1.056096   -0.004227
   18          7             0        3.116744   -0.699751    0.050005
   19          6             0        3.956138   -1.118945    1.042788
   20          6             0        3.411124   -1.887372    2.250547
   21          8             0        5.167830   -0.872567    1.043032
   22          6             0       -2.484148   -2.038970   -0.220862
   23          6             0       -3.354315   -1.381525   -1.117992
   24          6             0       -4.716166   -1.727708   -1.142014
   25          6             0       -5.174089   -2.724322   -0.268925
   26          7             0       -4.364517   -3.366924    0.596224
   27          6             0       -3.057050   -3.025463    0.611813
   28          1             0        4.270395    1.009290   -0.345073
   29          1             0        1.677298    1.745020    0.468106
   30          1             0        5.269204   -0.845472   -1.683215
   31          1             0        3.792664   -0.974135   -2.632060
   32          1             0        4.783779    0.479209   -2.727233
   33          1             0        2.892333    2.246230   -1.661354
   34          1             0        2.118347    0.866320   -2.394370
   35          1             0        0.347167    2.581904   -1.966510
   36          1             0       -0.105740    1.974547    1.720011
   37          1             0       -1.795321    3.137402    3.068237
   38          1             0       -3.323398    4.802004    2.018928
   39          1             0       -3.132423    5.294224   -0.415357
   40          1             0       -1.436355    4.141266   -1.791042
   41          1             0       -1.328265    0.401849   -0.494002
   42          1             0       -0.372625   -3.748652    0.144706
   43          1             0        2.004124   -3.200223    0.239755
   44          1             0        4.075911   -1.762025    3.105699
   45          1             0        3.351544   -2.954049    2.036373
   46          1             0        2.428304   -1.525286    2.551411
   47          1             0       -2.984447   -0.620453   -1.789702
   48          1             0       -5.399681   -1.238376   -1.821763
   49          1             0       -6.214414   -3.014531   -0.263312
   50          1             0       -2.448428   -3.559682    1.325829
 ---------------------------------------------------------------------
 Rotational constants (GHZ):      0.2077345      0.1435301      0.0985697
 Standard basis: 6-31G(d) (6D, 7F)
 There are   451 symmetry adapted basis functions of A   symmetry.
 Integral buffers will be    131072 words long.
 Raffenetti 1 integral format.
 Two-electron integral symmetry is turned on.
   451 basis functions,   848 primitive gaussians,   451 cartesian basis functions
    95 alpha electrons       95 beta electrons
       nuclear repulsion energy      2340.0025579723 Hartrees.
 NAtoms=   50 NActive=   50 NUniq=   50 SFac= 7.50D-01 NAtFMM=   80 NAOKFM=F Big=F
 One-electron integrals computed using PRISM.
 NBasis=   451 RedAO= T  NBF=   451
 NBsUse=   451 1.00D-06 NBFU=   451
 Harris functional with IExCor=  205 diagonalized for initial guess.
 ExpMin= 1.61D-01 ExpMax= 5.48D+03 ExpMxC= 8.25D+02 IAcc=1 IRadAn=         1 AccDes= 1.00D-06
 HarFok:  IExCor= 205 AccDes= 1.00D-06 IRadAn=         1 IDoV=1
 ScaDFX=  1.000000  1.000000  1.000000  1.000000
 Initial guess orbital symmetries:
       Occupied  (A) (A) (A) (A) (A) (A) (A) (A) (A) (A) (A) (A)
                 (A) (A) (A) (A) (A) (A) (A) (A) (A) (A) (A) (A)
                 (A) (A) (A) (A) (A) (A) (A) (A) (A) (A) (A) (A)
                 (A) (A) (A) (A) (A) (A) (A) (A) (A) (A) (A) (A)
                 (A) (A) (A) (A) (A) (A) (A) (A) (A) (A) (A) (A)
                 (A) (A) (A) (A) (A) (A) (A) (A) (A) (A) (A) (A)
                 (A) (A) (A) (A) (A) (A) (A) (A) (A) (A) (A) (A)
                 (A) (A) (A) (A) (A) (A) (A) (A) (A) (A) (A)
       Virtual   (A) (A) (A) (A) (A) (A) (A) (A) (A) (A) (A) (A)
                 (A) (A) (A) (A) (A) (A) (A) (A) (A) (A) (A) (A)
                 (A) (A) (A) (A) (A) (A) (A) (A) (A) (A) (A) (A)
                 (A) (A) (A) (A) (A) (A) (A) (A) (A) (A) (A) (A)
                 (A) (A) (A) (A) (A) (A) (A) (A) (A) (A) (A) (A)
                 (A) (A) (A) (A) (A) (A) (A) (A) (A) (A) (A) (A)
                 (A) (A) (A) (A) (A) (A) (A) (A) (A) (A) (A) (A)
                 (A) (A) (A) (A) (A) (A) (A) (A) (A) (A) (A) (A)
                 (A) (A) (A) (A) (A) (A) (A) (A) (A) (A) (A) (A)
                 (A) (A) (A) (A) (A) (A) (A) (A) (A) (A) (A) (A)
                 (A) (A) (A) (A) (A) (A) (A) (A) (A) (A) (A) (A)
                 (A) (A) (A) (A) (A) (A) (A) (A) (A) (A) (A) (A)
                 (A) (A) (A) (A) (A) (A) (A) (A) (A) (A) (A) (A)
                 (A) (A) (A) (A) (A) (A) (A) (A) (A) (A) (A) (A)
                 (A) (A) (A) (A) (A) (A) (A) (A) (A) (A) (A) (A)
                 (A) (A) (A) (A) (A) (A) (A) (A) (A) (A) (A) (A)
                 (A) (A) (A) (A) (A) (A) (A) (A) (A) (A) (A) (A)
                 (A) (A) (A) (A) (A) (A) (A) (A) (A) (A) (A) (A)
                 (A) (A) (A) (A) (A) (A) (A) (A) (A) (A) (A) (A)
                 (A) (A) (A) (A) (A) (A) (A) (A) (A) (A) (A) (A)
                 (A) (A) (A) (A) (A) (A) (A) (A) (A) (A) (A) (A)
                 (A) (A) (A) (A) (A) (A) (A) (A) (A) (A) (A) (A)
                 (A) (A) (A) (A) (A) (A) (A) (A) (A) (A) (A) (A)
                 (A) (A) (A) (A) (A) (A) (A) (A) (A) (A) (A) (A)
                 (A) (A) (A) (A) (A) (A) (A) (A) (A) (A) (A) (A)
                 (A) (A) (A) (A) (A) (A) (A) (A) (A) (A) (A) (A)
                 (A) (A) (A) (A) (A) (A) (A) (A) (A) (A) (A) (A)
                 (A) (A) (A) (A) (A) (A) (A) (A) (A) (A) (A) (A)
                 (A) (A) (A) (A) (A) (A) (A) (A) (A) (A) (A) (A)
                 (A) (A) (A) (A) (A) (A) (A) (A)
 The electronic state of the initial guess is 1-A.
 Requested convergence on RMS density matrix=1.00D-08 within 128 cycles.
 Requested convergence on MAX density matrix=1.00D-06.
 Requested convergence on             energy=1.00D-06.
 No special actions if energy rises.
 Integral accuracy reduced to 1.0D-05 until final iterations.
 Initial convergence to 1.0D-05 achieved.  Increase integral accuracy.
 SCF Done:  E(RHF) =  -1122.57831796     A.U. after   16 cycles
             Convg  =    0.6716D-08             -V/T =  2.0026
             S**2   =   0.0000

 **********************************************************************

            Population analysis using the SCF density.

 **********************************************************************

 Orbital symmetries:
 BldTbl:  Degeneracy threshold= 1.00D-02
       Occupied  (A) (A) (A) (A) (A) (A) (A) (A) (A) (A) (A) (A)
                 (A) (A) (A) (A) (A) (A) (A) (A) (A) (A) (A) (A)
                 (A) (A) (A) (A) (A) (A) (A) (A) (A) (A) (A) (A)
                 (A) (A) (A) (A) (A) (A) (A) (A) (A) (A) (A) (A)
                 (A) (A) (A) (A) (A) (A) (A) (A) (A) (A) (A) (A)
                 (A) (A) (A) (A) (A) (A) (A) (A) (A) (A) (A) (A)
                 (A) (A) (A) (A) (A) (A) (A) (A) (A) (A) (A) (A)
                 (A) (A) (A) (A) (A) (A) (A) (A) (A) (A) (A)
       Virtual   (A) (A) (A) (A) (A) (A) (A) (A) (A) (A) (A) (A)
                 (A) (A) (A) (A) (A) (A) (A) (A) (A) (A) (A) (A)
                 (A) (A) (A) (A) (A) (A) (A) (A) (A) (A) (A) (A)
                 (A) (A) (A) (A) (A) (A) (A) (A) (A) (A) (A) (A)
                 (A) (A) (A) (A) (A) (A) (A) (A) (A) (A) (A) (A)
                 (A) (A) (A) (A) (A) (A) (A) (A) (A) (A) (A) (A)
                 (A) (A) (A) (A) (A) (A) (A) (A) (A) (A) (A) (A)
                 (A) (A) (A) (A) (A) (A) (A) (A) (A) (A) (A) (A)
                 (A) (A) (A) (A) (A) (A) (A) (A) (A) (A) (A) (A)
                 (A) (A) (A) (A) (A) (A) (A) (A) (A) (A) (A) (A)
                 (A) (A) (A) (A) (A) (A) (A) (A) (A) (A) (A) (A)
                 (A) (A) (A) (A) (A) (A) (A) (A) (A) (A) (A) (A)
                 (A) (A) (A) (A) (A) (A) (A) (A) (A) (A) (A) (A)
                 (A) (A) (A) (A) (A) (A) (A) (A) (A) (A) (A) (A)
                 (A) (A) (A) (A) (A) (A) (A) (A) (A) (A) (A) (A)
                 (A) (A) (A) (A) (A) (A) (A) (A) (A) (A) (A) (A)
                 (A) (A) (A) (A) (A) (A) (A) (A) (A) (A) (A) (A)
                 (A) (A) (A) (A) (A) (A) (A) (A) (A) (A) (A) (A)
                 (A) (A) (A) (A) (A) (A) (A) (A) (A) (A) (A) (A)
                 (A) (A) (A) (A) (A) (A) (A) (A) (A) (A) (A) (A)
                 (A) (A) (A) (A) (A) (A) (A) (A) (A) (A) (A) (A)
                 (A) (A) (A) (A) (A) (A) (A) (A) (A) (A) (A) (A)
                 (A) (A) (A) (A) (A) (A) (A) (A) (A) (A) (A) (A)
                 (A) (A) (A) (A) (A) (A) (A) (A) (A) (A) (A) (A)
                 (A) (A) (A) (A) (A) (A) (A) (A) (A) (A) (A) (A)
                 (A) (A) (A) (A) (A) (A) (A) (A) (A) (A) (A) (A)
                 (A) (A) (A) (A) (A) (A) (A) (A) (A) (A) (A) (A)
                 (A) (A) (A) (A) (A) (A) (A) (A) (A) (A) (A) (A)
                 (A) (A) (A) (A) (A) (A) (A) (A) (A) (A) (A) (A)
                 (A) (A) (A) (A) (A) (A) (A) (A)
 The electronic state is 1-A.
 Alpha  occ. eigenvalues --  -20.52306 -15.60917 -15.58092 -15.57270 -11.35754
 Alpha  occ. eigenvalues --  -11.29682 -11.29133 -11.28983 -11.28412 -11.27906
 Alpha  occ. eigenvalues --  -11.27723 -11.26382 -11.26033 -11.25841 -11.25818
 Alpha  occ. eigenvalues --  -11.25442 -11.25204 -11.24981 -11.24756 -11.24647
 Alpha  occ. eigenvalues --  -11.24280 -11.24253 -11.23411 -11.23139 -11.23113
 Alpha  occ. eigenvalues --  -11.22489 -11.21789  -1.37250  -1.26833  -1.24834
 Alpha  occ. eigenvalues --   -1.24398  -1.15758  -1.13115  -1.09343  -1.08535
 Alpha  occ. eigenvalues --   -1.05462  -1.03141  -1.00874  -1.00786  -0.99870
 Alpha  occ. eigenvalues --   -0.98351  -0.95671  -0.89067  -0.87744  -0.86348
 Alpha  occ. eigenvalues --   -0.84605  -0.83236  -0.82054  -0.81098  -0.78885
 Alpha  occ. eigenvalues --   -0.75671  -0.71944  -0.71594  -0.68763  -0.68568
 Alpha  occ. eigenvalues --   -0.67884  -0.67308  -0.66409  -0.65230  -0.63675
 Alpha  occ. eigenvalues --   -0.62608  -0.61913  -0.61678  -0.61046  -0.60024
 Alpha  occ. eigenvalues --   -0.59023  -0.58801  -0.58285  -0.57692  -0.57248
 Alpha  occ. eigenvalues --   -0.56985  -0.56151  -0.55532  -0.54427  -0.53709
 Alpha  occ. eigenvalues --   -0.53580  -0.52425  -0.51755  -0.50944  -0.50745
 Alpha  occ. eigenvalues --   -0.49955  -0.49192  -0.48926  -0.48288  -0.47409
 Alpha  occ. eigenvalues --   -0.42664  -0.42292  -0.41383  -0.40844  -0.37730
 Alpha  occ. eigenvalues --   -0.35469  -0.34254  -0.33113  -0.29735  -0.28583
 Alpha virt. eigenvalues --    0.08933   0.11627   0.12360   0.13714   0.15759
 Alpha virt. eigenvalues --    0.16161   0.19820   0.22060   0.22825   0.23417
 Alpha virt. eigenvalues --    0.23918   0.24577   0.25892   0.26891   0.28181
 Alpha virt. eigenvalues --    0.28761   0.29031   0.29671   0.29859   0.30544
 Alpha virt. eigenvalues --    0.30765   0.31271   0.31349   0.31841   0.32405
 Alpha virt. eigenvalues --    0.32756   0.33442   0.34345   0.34862   0.35771
 Alpha virt. eigenvalues --    0.35937   0.36624   0.36848   0.37270   0.38607
 Alpha virt. eigenvalues --    0.39192   0.40694   0.41398   0.42371   0.43686
 Alpha virt. eigenvalues --    0.43990   0.44529   0.45457   0.45999   0.47783
 Alpha virt. eigenvalues --    0.48357   0.49287   0.50391   0.51033   0.52320
 Alpha virt. eigenvalues --    0.52946   0.54098   0.54907   0.56303   0.58045
 Alpha virt. eigenvalues --    0.59547   0.61400   0.63614   0.64795   0.65938
 Alpha virt. eigenvalues --    0.69408   0.69729   0.71514   0.72264   0.72637
 Alpha virt. eigenvalues --    0.72964   0.73826   0.74697   0.74981   0.75610
 Alpha virt. eigenvalues --    0.75960   0.76634   0.77057   0.77716   0.77934
 Alpha virt. eigenvalues --    0.78826   0.78876   0.79515   0.80135   0.80840
 Alpha virt. eigenvalues --    0.81194   0.81591   0.81916   0.82130   0.82623
 Alpha virt. eigenvalues --    0.83460   0.83698   0.83939   0.84231   0.84572
 Alpha virt. eigenvalues --    0.85483   0.85888   0.86660   0.88226   0.88668
 Alpha virt. eigenvalues --    0.89357   0.90113   0.90182   0.90829   0.91915
 Alpha virt. eigenvalues --    0.92945   0.93648   0.94425   0.94893   0.95840
 Alpha virt. eigenvalues --    0.96711   0.97186   0.98738   1.01227   1.02651
 Alpha virt. eigenvalues --    1.03185   1.04463   1.05305   1.06004   1.07289
 Alpha virt. eigenvalues --    1.08316   1.08667   1.09055   1.09999   1.10284
 Alpha virt. eigenvalues --    1.10334   1.10965   1.11345   1.11521   1.11990
 Alpha virt. eigenvalues --    1.12045   1.12561   1.13121   1.13801   1.14821
 Alpha virt. eigenvalues --    1.15552   1.15757   1.16060   1.16622   1.16861
 Alpha virt. eigenvalues --    1.17406   1.18292   1.18877   1.19156   1.19271
 Alpha virt. eigenvalues --    1.19584   1.20023   1.20262   1.21174   1.21759
 Alpha virt. eigenvalues --    1.22109   1.23179   1.23687   1.24067   1.24979
 Alpha virt. eigenvalues --    1.25286   1.26807   1.27429   1.28379   1.28928
 Alpha virt. eigenvalues --    1.31280   1.31705   1.32136   1.33505   1.34473
 Alpha virt. eigenvalues --    1.35662   1.36713   1.38061   1.39344   1.40167
 Alpha virt. eigenvalues --    1.40783   1.42143   1.42454   1.43786   1.44121
 Alpha virt. eigenvalues --    1.46210   1.46985   1.48647   1.49560   1.50496
 Alpha virt. eigenvalues --    1.50996   1.53986   1.56906   1.57544   1.60198
 Alpha virt. eigenvalues --    1.61483   1.62796   1.63526   1.64468   1.67066
 Alpha virt. eigenvalues --    1.67880   1.69812   1.70627   1.71446   1.71732
 Alpha virt. eigenvalues --    1.72490   1.73460   1.74147   1.75474   1.76060
 Alpha virt. eigenvalues --    1.76728   1.77388   1.78013   1.78462   1.79176
 Alpha virt. eigenvalues --    1.79523   1.79733   1.80749   1.85121   1.87293
 Alpha virt. eigenvalues --    1.90306   1.93949   1.95521   1.97575   1.98632
 Alpha virt. eigenvalues --    2.00602   2.01004   2.03695   2.04628   2.05290
 Alpha virt. eigenvalues --    2.06931   2.07958   2.08246   2.09281   2.09617
 Alpha virt. eigenvalues --    2.10973   2.11111   2.11799   2.12987   2.13646
 Alpha virt. eigenvalues --    2.14813   2.15518   2.16178   2.16402   2.17603
 Alpha virt. eigenvalues --    2.18404   2.20662   2.22719   2.23850   2.23960
 Alpha virt. eigenvalues --    2.25255   2.25444   2.27179   2.27350   2.29114
 Alpha virt. eigenvalues --    2.30087   2.30755   2.31670   2.32952   2.35969
 Alpha virt. eigenvalues --    2.36206   2.37308   2.37868   2.39399   2.40197
 Alpha virt. eigenvalues --    2.41263   2.41987   2.43635   2.44441   2.45024
 Alpha virt. eigenvalues --    2.45394   2.46249   2.46895   2.48109   2.49487
 Alpha virt. eigenvalues --    2.50686   2.51744   2.51821   2.52987   2.54019
 Alpha virt. eigenvalues --    2.55300   2.55784   2.56463   2.58904   2.59603
 Alpha virt. eigenvalues --    2.60153   2.61007   2.62208   2.62577   2.62909
 Alpha virt. eigenvalues --    2.65273   2.66184   2.66546   2.67368   2.69345
 Alpha virt. eigenvalues --    2.70954   2.74155   2.75605   2.77973   2.80250
 Alpha virt. eigenvalues --    2.81807   2.83088   2.84328   2.85902   2.87255
 Alpha virt. eigenvalues --    2.88182   2.90370   2.91483   2.92585   2.93865
 Alpha virt. eigenvalues --    2.95558   2.95856   2.97290   2.98365   2.99835
 Alpha virt. eigenvalues --    3.01061   3.01850   3.02929   3.03881   3.05739
 Alpha virt. eigenvalues --    3.07359   3.08131   3.08516   3.10343   3.12125
 Alpha virt. eigenvalues --    3.12702   3.13883   3.14700   3.16295   3.17862
 Alpha virt. eigenvalues --    3.24610   3.25893   3.26914   3.30262   3.31990
 Alpha virt. eigenvalues --    3.32767   3.38414   3.47200   3.54186   3.55614
 Alpha virt. eigenvalues --    3.61617   3.70394   3.76614   3.80929   4.43965
 Alpha virt. eigenvalues --    4.46544   4.47782   4.50787   4.51031   4.53304
 Alpha virt. eigenvalues --    4.53822   4.54102   4.55917   4.57591   4.59940
 Alpha virt. eigenvalues --    4.61387   4.64530   4.66167   4.72039   4.73116
 Alpha virt. eigenvalues --    4.74850   4.76116   4.80299   4.81071   4.85949
 Alpha virt. eigenvalues --    4.91872   4.95845   5.04427   5.09895   5.14660
 Alpha virt. eigenvalues --    5.21587
          Condensed to atoms (all electrons):
              1          2          3          4          5          6
     1  C    5.137328   0.360724  -0.062212   0.004162  -0.000045   0.000001
     2  C    0.360724   4.866366   0.347537  -0.043493   0.002486  -0.000043
     3  C   -0.062212   0.347537   5.187461   0.365703  -0.045259   0.002246
     4  C    0.004162  -0.043493   0.365703   4.802026   0.259033  -0.037591
     5  N   -0.000045   0.002486  -0.045259   0.259033   7.321154   0.262510
     6  C    0.000001  -0.000043   0.002246  -0.037591   0.262510   4.432650
     7  C    0.000000  -0.000007   0.000337  -0.002380  -0.056630   0.563740
     8  C    0.000000   0.000000   0.000000  -0.000086   0.003083  -0.032802
     9  C    0.000000   0.000000   0.000000   0.000001   0.000259  -0.024783
    10  C    0.000000   0.000000   0.000001  -0.000047   0.002631  -0.035230
    11  C    0.000000   0.000001  -0.000069   0.002041  -0.063543   0.561525
    12  C   -0.000360  -0.003915  -0.067281   0.309273  -0.065315   0.000434
    13  C   -0.000003   0.000232  -0.000098  -0.028655  -0.002212  -0.003093
    14  C    0.000000  -0.000010  -0.000057   0.001695   0.000324  -0.000097
    15  C   -0.000005  -0.000038   0.000014   0.000079  -0.000018   0.000003
    16  C   -0.000094   0.001975   0.000164   0.002835  -0.000051  -0.000001
    17  C    0.001689  -0.036527  -0.007308  -0.051691   0.001420   0.000003
    18  N   -0.064801   0.203579  -0.038306  -0.009293   0.000191  -0.000001
    19  C   -0.001360  -0.026274   0.003669   0.000017   0.000003   0.000000
    20  C   -0.000239   0.003590   0.000032  -0.000049   0.000000   0.000000
    21  O   -0.004651   0.007286   0.000542  -0.000025   0.000000   0.000000
    22  C    0.000000   0.000000   0.000001  -0.000095   0.000016  -0.000011
    23  C    0.000000   0.000000   0.000000  -0.000001  -0.000014  -0.000011
    24  C    0.000000   0.000000   0.000000   0.000000   0.000000   0.000000
    25  C    0.000000   0.000000   0.000000   0.000000   0.000000   0.000000
    26  N    0.000000   0.000000   0.000000   0.000000   0.000000   0.000000
    27  C    0.000000   0.000000   0.000000   0.000000   0.000000   0.000000
    28  H   -0.042799   0.417293  -0.044277  -0.001925  -0.000137   0.000000
    29  H    0.000107  -0.003095  -0.044337   0.428338  -0.052364   0.001412
    30  H    0.391661  -0.028550   0.003842  -0.000081   0.000000   0.000000
    31  H    0.384563  -0.035531  -0.004656  -0.000256  -0.000003   0.000000
    32  H    0.385331  -0.037561  -0.001352   0.000070  -0.000001   0.000000
    33  H    0.000535  -0.029406   0.393160  -0.035408   0.000911  -0.000156
    34  H   -0.005736  -0.038001   0.387797  -0.040261  -0.002672  -0.000051
    35  H   -0.000005   0.000038  -0.004433  -0.025693   0.333157  -0.024559
    36  H    0.000000   0.000007   0.000199   0.001016  -0.003283  -0.030888
    37  H    0.000000   0.000000   0.000000   0.000002  -0.000066   0.001336
    38  H    0.000000   0.000000   0.000000   0.000000   0.000002   0.000283
    39  H    0.000000   0.000000   0.000000   0.000001  -0.000077   0.001619
    40  H    0.000000   0.000000  -0.000011   0.000033  -0.002734  -0.037387
    41  H    0.000000  -0.000004   0.000076  -0.003293  -0.000931   0.004077
    42  H    0.000000   0.000001   0.000000   0.000007   0.000000   0.000000
    43  H   -0.000013  -0.000063   0.000006  -0.000084   0.000001   0.000000
    44  H    0.000000  -0.000056   0.000002  -0.000001   0.000000   0.000000
    45  H    0.000018  -0.000074  -0.000002   0.000000   0.000000   0.000000
    46  H    0.000002  -0.000145  -0.000016   0.000023   0.000000   0.000000
    47  H    0.000000   0.000000  -0.000001   0.000001   0.000018   0.000005
    48  H    0.000000   0.000000   0.000000   0.000000   0.000000   0.000000
    49  H    0.000000   0.000000   0.000000   0.000000   0.000000   0.000000
    50  H    0.000000   0.000000   0.000000   0.000000   0.000000   0.000000
              7          8          9         10         11         12
     1  C    0.000000   0.000000   0.000000   0.000000   0.000000  -0.000360
     2  C   -0.000007   0.000000   0.000000   0.000000   0.000001  -0.003915
     3  C    0.000337   0.000000   0.000000   0.000001  -0.000069  -0.067281
     4  C   -0.002380  -0.000086   0.000001  -0.000047   0.002041   0.309273
     5  N   -0.056630   0.003083   0.000259   0.002631  -0.063543  -0.065315
     6  C    0.563740  -0.032802  -0.024783  -0.035230   0.561525   0.000434
     7  C    5.005678   0.538761  -0.054028  -0.031722  -0.037069  -0.000922
     8  C    0.538761   4.861117   0.553027  -0.042333  -0.032582   0.000018
     9  C   -0.054028   0.553027   4.936247   0.549818  -0.053912  -0.000003
    10  C   -0.031722  -0.042333   0.549818   4.856706   0.549199  -0.000001
    11  C   -0.037069  -0.032582  -0.053912   0.549199   4.998966   0.000104
    12  C   -0.000922   0.000018  -0.000003  -0.000001   0.000104   5.008629
    13  C   -0.003950  -0.000077   0.000025  -0.000009  -0.000362   0.542501
    14  C   -0.000189  -0.000002   0.000000   0.000000  -0.000007  -0.036217
    15  C    0.000007   0.000000   0.000000   0.000000   0.000000  -0.034979
    16  C    0.000001   0.000000   0.000000   0.000000   0.000000  -0.038407
    17  C   -0.000050   0.000002   0.000000   0.000000   0.000002   0.562941
    18  N    0.000003   0.000000   0.000000   0.000000   0.000000  -0.058037
    19  C    0.000000   0.000000   0.000000   0.000000   0.000000   0.000953
    20  C    0.000000   0.000000   0.000000   0.000000   0.000000   0.000376
    21  O    0.000000   0.000000   0.000000   0.000000   0.000000  -0.000045
    22  C   -0.000014   0.000001   0.000000   0.000000   0.000000   0.003816
    23  C    0.000004   0.000001   0.000000   0.000000  -0.000002   0.000128
    24  C    0.000000   0.000000   0.000000   0.000000   0.000000  -0.000003
    25  C    0.000000   0.000000   0.000000   0.000000   0.000000   0.000000
    26  N    0.000000   0.000000   0.000000   0.000000   0.000000   0.000000
    27  C    0.000000   0.000000   0.000000   0.000000   0.000000  -0.000081
    28  H   -0.000002   0.000000   0.000000   0.000000   0.000000   0.000327
    29  H    0.000795  -0.000031  -0.000009  -0.000007   0.000143  -0.075393
    30  H    0.000000   0.000000   0.000000   0.000000   0.000000  -0.000004
    31  H    0.000000   0.000000   0.000000   0.000000   0.000000   0.000206
    32  H    0.000000   0.000000   0.000000   0.000000   0.000000  -0.000020
    33  H   -0.000013   0.000000   0.000000   0.000000  -0.000015   0.006636
    34  H   -0.000013   0.000000   0.000000   0.000000  -0.000005  -0.006203
    35  H    0.002103  -0.000077   0.000004   0.000036  -0.000765   0.001566
    36  H    0.379065  -0.027463   0.002352   0.000133   0.002345   0.001100
    37  H   -0.029211   0.381839  -0.028338   0.002330   0.000326  -0.000003
    38  H    0.002555  -0.030462   0.383580  -0.030940   0.002520   0.000000
    39  H    0.000247   0.002427  -0.028924   0.381466  -0.029578   0.000000
    40  H    0.002494   0.000131   0.002429  -0.026011   0.380006  -0.000006
    41  H    0.000858  -0.000105  -0.000042  -0.000008   0.000846  -0.020360
    42  H    0.000000   0.000000   0.000000   0.000000   0.000000   0.000307
    43  H    0.000000   0.000000   0.000000   0.000000   0.000000   0.002148
    44  H    0.000000   0.000000   0.000000   0.000000   0.000000   0.000013
    45  H    0.000000   0.000000   0.000000   0.000000   0.000000  -0.000084
    46  H   -0.000001   0.000000   0.000000   0.000000   0.000000   0.000412
    47  H   -0.000006  -0.000001   0.000000   0.000001   0.000010   0.000011
    48  H    0.000000   0.000000   0.000000   0.000000   0.000000   0.000000
    49  H    0.000000   0.000000   0.000000   0.000000   0.000000   0.000000
    50  H    0.000000   0.000000   0.000000   0.000000   0.000000  -0.000011
             13         14         15         16         17         18
     1  C   -0.000003   0.000000  -0.000005  -0.000094   0.001689  -0.064801
     2  C    0.000232  -0.000010  -0.000038   0.001975  -0.036527   0.203579
     3  C   -0.000098  -0.000057   0.000014   0.000164  -0.007308  -0.038306
     4  C   -0.028655   0.001695   0.000079   0.002835  -0.051691  -0.009293
     5  N   -0.002212   0.000324  -0.000018  -0.000051   0.001420   0.000191
     6  C   -0.003093  -0.000097   0.000003  -0.000001   0.000003  -0.000001
     7  C   -0.003950  -0.000189   0.000007   0.000001  -0.000050   0.000003
     8  C   -0.000077  -0.000002   0.000000   0.000000   0.000002   0.000000
     9  C    0.000025   0.000000   0.000000   0.000000   0.000000   0.000000
    10  C   -0.000009   0.000000   0.000000   0.000000   0.000000   0.000000
    11  C   -0.000362  -0.000007   0.000000   0.000000   0.000002   0.000000
    12  C    0.542501  -0.036217  -0.034979  -0.038407   0.562941  -0.058037
    13  C    4.965924   0.538409  -0.034145  -0.042647  -0.030164   0.003849
    14  C    0.538409   4.787555   0.544693  -0.039550  -0.023357  -0.000142
    15  C   -0.034145   0.544693   4.960857   0.513918  -0.041901   0.004178
    16  C   -0.042647  -0.039550   0.513918   4.970450   0.559102  -0.056482
    17  C   -0.030164  -0.023357  -0.041901   0.559102   4.586541   0.220701
    18  N    0.003849  -0.000142   0.004178  -0.056482   0.220701   7.554889
    19  C    0.000010   0.000012  -0.000106  -0.003417  -0.024630   0.260195
[...]
 **** Fit       0.011660
 **** Fit       0.011238
 **** Fit       0.011052
 **** Fit       0.010930
 **** Fit       0.010753
 **** Fit       0.010429
 **** Fit       0.009883
 **** Fit       0.009057
 **** Fit       0.007918
 **** Fit       0.009714
 **** Fit       0.009718
 **** Fit       0.009719
 **** Fit       0.009637
 **** Fit       0.009393
 **** Fit       0.008921
 **** Fit       0.008163
 **** Fit       0.007068
 **** Fit       0.005592
 **** Fit       0.008018
 **** Fit       0.008252
 **** Fit       0.008272
 **** Fit       0.008036
 **** Fit       0.007488
 **** Fit       0.006571
 **** Fit       0.005210
 **** Fit       0.006597
 **** Fit       0.006782
 **** Fit       0.006592
 **** Fit       0.006002
 **** Fit       0.004971
 **** Fit       0.003456
 **** Fit       0.002662
 **** Fit       0.003021
 **** Fit       0.003723
 **** Fit       0.004061
 **** Fit       0.003787
 **** Fit       0.003091
 **** Fit       0.001586
 **** Fit       0.001792
 **** Fit       0.002430
 **** Fit       0.003232
 **** Fit       0.003935
 **** Fit       0.004395
 **** Fit       0.004571
 **** Fit       0.004466
 **** Fit       0.004071
 **** Fit       0.003402
 **** Fit       0.002596
 **** Fit       0.001902
 **** Fit       0.000126
 **** Fit       0.000263
 **** Fit       0.000810
 **** Fit       0.001639
 **** Fit       0.002566
 **** Fit       0.003433
 **** Fit       0.004145
 **** Fit       0.004665
 **** Fit       0.004382
 **** Fit       0.003719
 **** Fit       0.002872
 **** Fit       0.001947
 **** Fit       0.001080
 **** Fit       0.000426
 **** Fit      -0.001838
 **** Fit      -0.001743
 **** Fit      -0.001203
 **** Fit      -0.000309
 **** Fit       0.000792
 **** Fit       0.001938
 **** Fit       0.003002
 **** Fit       0.003915
 **** Fit       0.003485
 **** Fit       0.002438
 **** Fit       0.001312
 **** Fit       0.000207
 **** Fit      -0.000767
 **** Fit      -0.001488
 **** Fit      -0.004467
 **** Fit      -0.004416
 **** Fit      -0.003839
 **** Fit      -0.002807
 **** Fit      -0.001464
 **** Fit       0.000015
 **** Fit       0.001467
 **** Fit       0.002783
 **** Fit       0.003916
 **** Fit       0.002234
 **** Fit       0.000825
 **** Fit      -0.000597
 **** Fit      -0.001949
 **** Fit      -0.003128
 **** Fit      -0.004009
 **** Fit      -0.007992
 **** Fit      -0.008017
 **** Fit      -0.007412
 **** Fit      -0.006231
 **** Fit      -0.004611
 **** Fit      -0.002742
 **** Fit      -0.000817
 **** Fit       0.001003
 **** Fit       0.002623
 **** Fit       0.000378
 **** Fit      -0.001407
 **** Fit      -0.003164
 **** Fit      -0.004821
 **** Fit      -0.006270
 **** Fit      -0.007373
 **** Fit      -0.012766
 **** Fit      -0.012905
 **** Fit      -0.012178
 **** Fit      -0.010639
 **** Fit      -0.008461
 **** Fit      -0.005896
 **** Fit      -0.003217
 **** Fit      -0.000656
 **** Fit      -0.001378
 **** Fit      -0.003734
 **** Fit      -0.006063
 **** Fit      -0.008288
 **** Fit      -0.010273
 **** Fit      -0.011833
 **** Fit      -0.019367
 **** Fit      -0.019726
 **** Fit      -0.018881
 **** Fit      -0.016876
 **** Fit      -0.013935
 **** Fit      -0.010400
 **** Fit      -0.006650
 **** Fit      -0.003026
 **** Fit      -0.006832
 **** Fit      -0.009923
 **** Fit      -0.012937
 **** Fit      -0.015695
 **** Fit      -0.017937
 **** Fit      -0.014668
 **** Fit      -0.018954
 **** Fit       0.006872
 **** Fit       0.006331
 **** Fit       0.007813
 **** Fit       0.007727
 **** Fit       0.007335
 **** Fit       0.006616
 **** Fit       0.005593
 **** Fit       0.004342
 **** Fit       0.008574
 **** Fit       0.008707
 **** Fit       0.008538
 **** Fit       0.008041
 **** Fit       0.007218
 **** Fit       0.006081
 **** Fit       0.004661
 **** Fit       0.003021
 **** Fit       0.009371
 **** Fit       0.009723
 **** Fit       0.009745
 **** Fit       0.009438
 **** Fit       0.008819
 **** Fit       0.007898
 **** Fit       0.006680
 **** Fit       0.005169
 **** Fit       0.003371
 **** Fit       0.001313
 **** Fit       0.009388
 **** Fit       0.010395
 **** Fit       0.010944
 **** Fit       0.011044
 **** Fit       0.010757
 **** Fit       0.010139
 **** Fit       0.009219
 **** Fit       0.008006
 **** Fit       0.006489
 **** Fit       0.004647
 **** Fit       0.002451
 **** Fit      -0.000130
 **** Fit       0.011735
 **** Fit       0.012505
 **** Fit       0.012641
 **** Fit       0.012311
 **** Fit       0.011634
 **** Fit       0.010673
 **** Fit       0.009449
 **** Fit       0.007951
 **** Fit       0.006147
 **** Fit       0.003985
 **** Fit       0.001391
 **** Fit      -0.001739
 **** Fit       0.014490
 **** Fit       0.013733
 **** Fit       0.012687
 **** Fit       0.011416
 **** Fit       0.009924
 **** Fit       0.008180
 **** Fit       0.006127
 **** Fit       0.003680
 **** Fit       0.000713
 **** Fit      -0.002961
 **** Fit       0.014707
 **** Fit       0.013079
 **** Fit       0.011305
 **** Fit       0.009334
 **** Fit       0.007079
 **** Fit       0.004419
 **** Fit       0.001177
 **** Fit      -0.002921
 **** Fit       0.015883
 **** Fit       0.013599
 **** Fit       0.011289
 **** Fit       0.008809
 **** Fit       0.005992
 **** Fit       0.002613
 **** Fit      -0.001668
 **** Fit       0.013824
 **** Fit       0.010972
 **** Fit       0.007979
 **** Fit       0.004562
 **** Fit       0.000352
 **** Fit       0.011890
 **** Fit       0.008313
 **** Fit       0.004319
 **** Fit       0.008863
 **** Fit       0.005936
 **** Fit       0.005997
 **** Fit       0.005961
 **** Fit       0.006043
 **** Fit       0.006265
 **** Fit       0.006254
 **** Fit       0.006127
 **** Fit       0.006032
 **** Fit       0.006039
 **** Fit       0.006290
 **** Fit       0.006632
 **** Fit       0.006666
 **** Fit       0.006455
 **** Fit       0.006171
 **** Fit       0.005975
 **** Fit       0.005941
 **** Fit       0.006063
 **** Fit       0.006297
 **** Fit       0.006808
 **** Fit       0.007202
 **** Fit       0.007197
 **** Fit       0.006830
 **** Fit       0.006302
 **** Fit       0.005847
 **** Fit       0.005611
 **** Fit       0.005627
 **** Fit       0.005856
 **** Fit       0.006241
 **** Fit       0.006800
 **** Fit       0.007552
 **** Fit       0.007985
 **** Fit       0.007932
 **** Fit       0.007371
 **** Fit       0.006514
 **** Fit       0.005674
 **** Fit       0.005089
 **** Fit       0.004855
 **** Fit       0.004961
 **** Fit       0.005339
 **** Fit       0.005918
 **** Fit       0.006644
 **** Fit       0.008215
 **** Fit       0.008899
 **** Fit       0.009078
 **** Fit       0.008499
 **** Fit       0.007249
 **** Fit       0.005774
 **** Fit       0.004530
 **** Fit       0.003758
 **** Fit       0.003510
 **** Fit       0.003738
 **** Fit       0.004354
 **** Fit       0.005270
 **** Fit       0.006408
 **** Fit       0.010031
 **** Fit       0.010513
 **** Fit       0.008641
 **** Fit       0.006380
 **** Fit       0.004165
 **** Fit       0.002507
 **** Fit       0.001537
 **** Fit       0.001225
 **** Fit       0.004617
 **** Fit       0.004962
 **** Fit       0.006095
 **** Fit       0.006665
 **** Fit       0.007158
 **** Fit       0.007752
 **** Fit       0.006839
 **** Fit       0.007831
 **** Fit       0.008426
 **** Fit       0.008878
 **** Fit       0.009401
 **** Fit       0.010162
 **** Fit       0.011374
 **** Fit       0.008265
 **** Fit       0.008956
 **** Fit       0.009591
 **** Fit       0.010042
 **** Fit       0.010381
 **** Fit       0.010760
 **** Fit       0.011333
 **** Fit       0.012258
 **** Fit       0.013756
 **** Fit       0.002715
 **** Fit       0.008337
 **** Fit       0.009356
 **** Fit       0.010108
 **** Fit       0.010671
 **** Fit       0.011104
 **** Fit       0.011412
 **** Fit       0.011661
 **** Fit       0.011982
 **** Fit       0.012515
 **** Fit       0.013400
 **** Fit       0.014763
 **** Fit       0.004976
 **** Fit       0.005970
 **** Fit       0.007137
 **** Fit       0.009748
 **** Fit       0.010723
 **** Fit       0.011441
 **** Fit       0.011922
 **** Fit       0.012230
 **** Fit       0.012460
 **** Fit       0.012740
 **** Fit       0.013196
 **** Fit       0.013901
 **** Fit       0.014797
 **** Fit       0.005591
 **** Fit       0.006454
 **** Fit       0.007469
 **** Fit       0.008608
 **** Fit       0.010553
 **** Fit       0.011486
 **** Fit       0.012147
 **** Fit       0.012559
 **** Fit       0.012836
 **** Fit       0.013119
 **** Fit       0.013491
 **** Fit       0.013855
 **** Fit       0.013819
 **** Fit       0.006833
 **** Fit       0.007451
 **** Fit       0.008364
 **** Fit       0.009451
 **** Fit       0.010996
 **** Fit       0.011919
 **** Fit       0.012509
 **** Fit       0.012846
 **** Fit       0.013038
 **** Fit       0.012915
 **** Fit       0.012026
 **** Fit       0.010429
 **** Fit       0.009045
 **** Fit       0.008571
 **** Fit       0.008967
 **** Fit       0.009897
 **** Fit       0.011240
 **** Fit       0.012114
 **** Fit       0.012334
 **** Fit       0.011624
 **** Fit       0.010399
 **** Fit       0.010286
 **** Fit       0.011410
 **** Fit       0.005648
 **** Fit       0.006927
 **** Fit       0.004762
 **** Fit       0.005620
 **** Fit       0.006513
 **** Fit       0.007432
 **** Fit       0.008388
 **** Fit       0.009411
 **** Fit       0.010542
 **** Fit       0.006023
 **** Fit       0.006496
 **** Fit       0.007092
 **** Fit       0.007744
 **** Fit       0.008417
 **** Fit       0.009097
 **** Fit       0.009779
 **** Fit       0.010464
 **** Fit       0.011145
 **** Fit       0.011782
 **** Fit       0.008291
 **** Fit       0.007932
 **** Fit       0.007998
 **** Fit       0.008304
 **** Fit       0.008732
 **** Fit       0.009212
 **** Fit       0.009702
 **** Fit       0.010173
 **** Fit       0.010608
 **** Fit       0.010982
 **** Fit       0.011253
 **** Fit       0.011345
 **** Fit       0.011127
 **** Fit       0.010835
 **** Fit       0.009921
 **** Fit       0.009592
 **** Fit       0.009613
 **** Fit       0.009826
 **** Fit       0.010129
 **** Fit       0.010455
 **** Fit       0.010758
 **** Fit       0.011002
 **** Fit       0.011149
 **** Fit       0.011149
 **** Fit       0.010928
 **** Fit       0.010384
 **** Fit       0.009392
 **** Fit       0.013139
 **** Fit       0.011778
 **** Fit       0.011081
 **** Fit       0.010813
 **** Fit       0.010802
 **** Fit       0.010924
 **** Fit       0.011092
 **** Fit       0.011245
 **** Fit       0.011331
 **** Fit       0.011304
 **** Fit       0.011112
 **** Fit       0.010690
 **** Fit       0.009965
 **** Fit       0.008863
 **** Fit       0.007344
 **** Fit       0.014188
 **** Fit       0.012846
 **** Fit       0.012072
 **** Fit       0.011705
 **** Fit       0.011588
 **** Fit       0.011592
 **** Fit       0.011618
 **** Fit       0.011590
 **** Fit       0.011443
 **** Fit       0.011112
 **** Fit       0.010536
 **** Fit       0.009652
 **** Fit       0.008423
 **** Fit       0.006866
 **** Fit       0.014384
 **** Fit       0.013351
 **** Fit       0.012640
 **** Fit       0.012239
 **** Fit       0.012041
 **** Fit       0.011928
 **** Fit       0.011793
 **** Fit       0.011548
 **** Fit       0.011117
 **** Fit       0.010435
 **** Fit       0.009461
 **** Fit       0.008205
 **** Fit       0.006754
 **** Fit       0.013738
 **** Fit       0.013696
 **** Fit       0.013184
 **** Fit       0.012683
 **** Fit       0.012335
 **** Fit       0.012085
 **** Fit       0.011816
 **** Fit       0.011409
 **** Fit       0.010771
 **** Fit       0.009856
 **** Fit       0.008699
 **** Fit       0.007460
 **** Fit       0.006437
 **** Fit       0.011631
 **** Fit       0.012547
 **** Fit       0.012586
 **** Fit       0.012298
 **** Fit       0.011949
 **** Fit       0.011477
 **** Fit       0.010744
 **** Fit       0.009725
 **** Fit       0.008647
 **** Fit       0.008024
 **** Fit       0.008420
 **** Fit       0.009902
 **** Fit       0.011090
 **** Fit       0.011787
 **** Fit       0.011541
 **** Fit       0.010752
 **** Fit       0.009784
 **** Fit       0.009817
 **** Fit       0.010841
 **** Fit      -0.008034
 **** Fit      -0.009089
 **** Fit      -0.011584
 **** Fit      -0.004618
 **** Fit      -0.004345
 **** Fit      -0.004807
 **** Fit      -0.006089
 **** Fit      -0.008346
 **** Fit      -0.011862
 **** Fit      -0.002231
 **** Fit      -0.001612
 **** Fit      -0.001506
 **** Fit      -0.001935
 **** Fit      -0.002950
 **** Fit      -0.004636
 **** Fit      -0.007138
 **** Fit      -0.010706
 **** Fit      -0.000362
 **** Fit       0.000404
 **** Fit       0.000784
 **** Fit       0.000781
 **** Fit       0.000381
 **** Fit      -0.000446
 **** Fit      -0.001747
 **** Fit      -0.003596
 **** Fit      -0.006111
 **** Fit      -0.009486
 **** Fit       0.000917
 **** Fit       0.001861
 **** Fit       0.002455
 **** Fit       0.002722
 **** Fit       0.002667
 **** Fit       0.002279
 **** Fit       0.001538
 **** Fit       0.000411
 **** Fit      -0.001148
 **** Fit      -0.003209
 **** Fit      -0.005883
 **** Fit      -0.009346
 **** Fit       0.003111
 **** Fit       0.003801
 **** Fit       0.004204
 **** Fit       0.004343
 **** Fit       0.004218
 **** Fit       0.003822
 **** Fit       0.003139
 **** Fit       0.002145
 **** Fit       0.000813
 **** Fit      -0.000900
 **** Fit      -0.003052
 **** Fit      -0.005729
 **** Fit      -0.009063
 **** Fit       0.004695
 **** Fit       0.005276
 **** Fit       0.005612
 **** Fit       0.005731
 **** Fit       0.005638
 **** Fit       0.005326
 **** Fit       0.004781
 **** Fit       0.003987
 **** Fit       0.002924
 **** Fit       0.001568
 **** Fit      -0.000108
 **** Fit      -0.002143
 **** Fit      -0.004587
 **** Fit       0.006776
 **** Fit       0.006993
 **** Fit       0.007037
 **** Fit       0.006916
 **** Fit       0.006618
 **** Fit       0.006125
 **** Fit       0.005419
 **** Fit       0.004478
 **** Fit       0.003284
 **** Fit       0.001817
 **** Fit       0.000058
 **** Fit      -0.002016
 **** Fit      -0.004431
 **** Fit       0.008775
 **** Fit       0.008604
 **** Fit       0.008366
 **** Fit       0.008042
 **** Fit       0.007597
 **** Fit       0.006995
 **** Fit       0.006207
 **** Fit       0.005205
 **** Fit       0.003968
 **** Fit       0.002482
 **** Fit       0.000734
 **** Fit      -0.001280
 **** Fit       0.010510
 **** Fit       0.009798
 **** Fit       0.009155
 **** Fit       0.008491
 **** Fit       0.007737
 **** Fit       0.006840
 **** Fit       0.005764
 **** Fit       0.004482
 **** Fit       0.002981
 **** Fit       0.001257
 **** Fit       0.011761
 **** Fit       0.010510
 **** Fit       0.009460
 **** Fit       0.008436
 **** Fit       0.007329
 **** Fit       0.006071
 **** Fit       0.004621
 **** Fit       0.002963
 **** Fit       0.010550
 **** Fit       0.009129
 **** Fit       0.007743
 **** Fit       0.006263
 **** Fit       0.004624
 **** Fit       0.010895
 **** Fit       0.008973
 **** Fit       0.007166
 **** Fit      -0.001442
 **** Fit       0.000688
 **** Fit      -0.001032
 **** Fit      -0.003448
 **** Fit      -0.004218
 **** Fit      -0.002102
 **** Fit       0.000340
 **** Fit       0.002287
 **** Fit       0.001011
 **** Fit      -0.000877
 **** Fit      -0.003209
 **** Fit      -0.005695
 **** Fit      -0.007612
 **** Fit      -0.007861
 **** Fit      -0.006024
 **** Fit      -0.003010
 **** Fit      -0.000088
 **** Fit       0.001923
 **** Fit       0.002691
 **** Fit       0.003386
 **** Fit       0.002227
 **** Fit       0.000764
 **** Fit      -0.000988
 **** Fit      -0.003066
 **** Fit      -0.010881
 **** Fit      -0.007695
 **** Fit      -0.004158
 **** Fit      -0.000940
 **** Fit       0.001618
 **** Fit       0.003343
 **** Fit       0.004159
 **** Fit       0.004108
 **** Fit       0.003926
 **** Fit       0.002705
 **** Fit       0.001393
 **** Fit      -0.000039
 **** Fit      -0.001687
 **** Fit      -0.011177
 **** Fit      -0.006873
 **** Fit      -0.003030
 **** Fit       0.000172
 **** Fit       0.002678
 **** Fit       0.004439
 **** Fit       0.005393
 **** Fit       0.005524
 **** Fit       0.004950
 **** Fit       0.003709
 **** Fit       0.002303
 **** Fit       0.001054
 **** Fit      -0.000129
 **** Fit      -0.012070
 **** Fit      -0.007080
 **** Fit      -0.002919
 **** Fit       0.000481
 **** Fit       0.003188
 **** Fit       0.005206
 **** Fit       0.006458
 **** Fit       0.006843
 **** Fit       0.006347
 **** Fit       0.005172
 **** Fit      -0.007100
 **** Fit      -0.002781
 **** Fit       0.000747
 **** Fit       0.003631
 **** Fit       0.005912
 **** Fit       0.007507
 **** Fit       0.008236
 **** Fit      -0.010450
 **** Fit      -0.005152
 **** Fit      -0.000899
 **** Fit       0.002627
 **** Fit       0.005589
 **** Fit       0.007982
 **** Fit      -0.002988
 **** Fit       0.001141
 **** Fit       0.004732
 **** Fit       0.007930
 **** Fit       0.002372
 **** Fit       0.006387
 -----------------------------------------------------------------
 Leave Link  602 at Wed Sep 23 20:53:45 2015, MaxMem=    6291456 cpu:      11.7

 Test job not archived.
 1\1\GINC-COMPUTE-2-8\FOpt\RHF\6-31G(d)\C23H23N3O1\SHUNZHOU\23-Sep-2015
 \0\\#HF/6-31G* SCF=tight Test Pop=MK iop(6/33=2) iop(6/42=6) opt\\rema
 rk line goes here\\0,1\C,15.00192515,5.9846144635,9.9543758883\C,14.05
 85801605,5.0476046556,9.2056207627\C,14.8227132229,4.0604718765,8.3015
 926757\C,14.0957104561,2.7157583732,8.1770667498\N,14.7804017449,1.850
 6678263,7.2393956728\C,14.0934475569,0.9831562552,6.3905301552\C,12.84
 37767706,0.4604105857,6.7151275334\C,12.2108477711,-0.4217288655,5.852
 637769\C,12.8004437929,-0.8069545579,4.6628872574\C,14.0487337923,-0.2
 931204172,4.3422956701\C,14.6878857742,0.5898907195,5.1892350946\C,14.
 0239706256,2.1562267246,9.586830866\C,14.4540048548,0.8945928965,9.950
 7061958\C,14.4292711962,0.4787782403,11.2813668555\C,13.9952034671,1.3
 791457684,12.2471203338\C,13.5849162791,2.6542421396,11.8963988387\C,1
 3.5679647891,3.0367111383,10.5659422798\N,13.1660681922,4.325557366,10
 .1345204873\C,11.9802069807,4.9302524389,10.4608268862\C,10.930520046,
 4.1398376639,11.2167598989\O,11.754781631,6.0640802164,10.1335068047\C
 ,14.8776481957,-0.8889735415,11.6584843529\C,16.0207909325,-1.46765409
 16,11.1191956681\C,16.3872920227,-2.7416126971,11.5099817415\C,15.5959
 428064,-3.3995976456,12.4353807659\N,14.5048581473,-2.8701029458,12.95
 71284659\C,14.1616586542,-1.6556076396,12.5743248701\H,13.4054063419,5
 .6409374785,8.5860783876\H,13.0854323602,2.9109780507,7.824009006\H,14
 .4364165045,6.7224573659,10.5087227581\H,15.6277809376,5.4285532993,10
 .6460362193\H,15.6511140102,6.505994649,9.2563755857\H,14.9464855127,4
 .5151798492,7.3230423801\H,15.8161309996,3.8708778974,8.6988073719\H,1
 5.5647019305,2.2810403447,6.802512034\H,12.3691180524,0.7225552444,7.6
 417571752\H,11.2460072808,-0.8120398588,6.1247706481\H,12.3035476696,-
 1.4920973928,4.0007163736\H,14.5279587054,-0.5779129817,3.4221778529\H
 ,15.6553556922,0.9814428366,4.9236066098\H,14.7965601163,0.2252303612,
 9.1852244121\H,14.0112846662,1.1011191043,13.2852570698\H,13.296612482
 1,3.3518502473,12.6603268025\H,9.9732537874,4.572144417,10.9628598873\
 H,11.0742698992,4.2525823861,12.2853960539\H,10.9353384314,3.084745576
 2,10.9825225671\H,16.6230276452,-0.9219282756,10.4153106344\H,17.26830
 23865,-3.2120402155,11.1143151187\H,15.8510581823,-4.3905571314,12.767
 3675575\H,13.2562713925,-1.2657601987,13.0055669541\\Version=AM64L-G03
 RevD.02\State=1-A\HF=-1122.6008309\RMSD=5.666e-09\RMSF=8.152e-06\Therm
 al=0.\Dipole=1.1087771,-0.2684069,-0.5487512\PG=C01 [X(C23H23N3O1)]\\@


 TELEVISION IS CALLED A MEDIUM BECAUSE IT ISN'T
 RARE, AND IT ISN'T WELL DONE.
 Job cpu time:  0 days  4 hours 46 minutes  7.8 seconds.
 File lengths (MBytes):  RWF=    138 Int=      0 D2E=      0 Chk=     20 Scr=      1
 Normal termination of Gaussian 03 at Wed Sep 23 20:53:45 2015.
