 Entering Gaussian System, Link 0=/share/apps/g03/g03
 Initial command:
 /share/apps//g03/l1.exe /state/partition1/mmpbsa.10/Gau-21612.inp -scrdir=/state/partition1/mmpbsa.10/
 Entering Link 1 = /share/apps//g03/l1.exe PID=     21614.
  
 Copyright (c) 1988,1990,1992,1993,1995,1998,2003,2004, Gaussian, Inc.
                  All Rights Reserved.
  
 This is the Gaussian(R) 03 program.  It is based on the
 the Gaussian(R) 98 system (copyright 1998, Gaussian, Inc.),
 the Gaussian(R) 94 system (copyright 1995, Gaussian, Inc.),
 the Gaussian 92(TM) system (copyright 1992, Gaussian, Inc.),
 the Gaussian 90(TM) system (copyright 1990, Gaussian, Inc.),
 the Gaussian 88(TM) system (copyright 1988, Gaussian, Inc.),
 the Gaussian 86(TM) system (copyright 1986, Carnegie Mellon
 University), and the Gaussian 82(TM) system (copyright 1983,
 Carnegie Mellon University). Gaussian is a federally registered
 trademark of Gaussian, Inc.
  
 This software contains proprietary and confidential information,
 including trade secrets, belonging to Gaussian, Inc.
  
 This software is provided under written license and may be
 used, copied, transmitted, or stored only in accord with that
 written license.
  
 The following legend is applicable only to US Government
 contracts under FAR:
  
                    RESTRICTED RIGHTS LEGEND
  
 Use, reproduction and disclosure by the US Government is
 subject to restrictions as set forth in subparagraphs (a)
 and (c) of the Commercial Computer Software - Restricted
 Rights clause in FAR 52.227-19.
  
 Gaussian, Inc.
 340 Quinnipiac St., Bldg. 40, Wallingford CT 06492
  
  
 ---------------------------------------------------------------
 Warning -- This program may not be used in any manner that
 competes with the business of Gaussian, Inc. or will provide
 assistance to any competitor of Gaussian, Inc.  The licensee
 of this program is prohibited from giving any competitor of
 Gaussian, Inc. access to this program.  By using this program,
 the user acknowledges that Gaussian, Inc. is engaged in the
 business of creating and licensing software in the field of
 computational chemistry and represents and warrants to the
 licensee that it is not a competitor of Gaussian, Inc. and that
 it will not use this program in any manner prohibited above.
 ---------------------------------------------------------------
  

 Cite this work as:
 Gaussian 03, Revision D.02,
 M. J. Frisch, G. W. Trucks, H. B. Schlegel, G. E. Scuseria, 
 M. A. Robb, J. R. Cheeseman, J. A. Montgomery, Jr., T. Vreven, 
 K. N. Kudin, J. C. Burant, J. M. Millam, S. S. Iyengar, J. Tomasi, 
 V. Barone, B. Mennucci, M. Cossi, G. Scalmani, N. Rega, 
 G. A. Petersson, H. Nakatsuji, M. Hada, M. Ehara, K. Toyota, 
 R. Fukuda, J. Hasegawa, M. Ishida, T. Nakajima, Y. Honda, O. Kitao, 
 H. Nakai, M. Klene, X. Li, J. E. Knox, H. P. Hratchian, J. B. Cross, 
 V. Bakken, C. Adamo, J. Jaramillo, R. Gomperts, R. E. Stratmann, 
 O. Yazyev, A. J. Austin, R. Cammi, C. Pomelli, J. W. Ochterski, 
 P. Y. Ayala, K. Morokuma, G. A. Voth, P. Salvador, J. J. Dannenberg, 
 V. G. Zakrzewski, S. Dapprich, A. D. Daniels, M. C. Strain, 
 O. Farkas, D. K. Malick, A. D. Rabuck, K. Raghavachari, 
 J. B. Foresman, J. V. Ortiz, Q. Cui, A. G. Baboul, S. Clifford, 
 J. Cioslowski, B. B. Stefanov, G. Liu, A. Liashenko, P. Piskorz, 
 I. Komaromi, R. L. Martin, D. J. Fox, T. Keith, M. A. Al-Laham, 
 C. Y. Peng, A. Nanayakkara, M. Challacombe, P. M. W. Gill, 
 B. Johnson, W. Chen, M. W. Wong, C. Gonzalez, and J. A. Pople, 
 Gaussian, Inc., Wallingford CT, 2004.
 
 ******************************************
 Gaussian 03:  AM64L-G03RevD.02  1-Mar-2006
                 8-Jun-2016 
 ******************************************
 %chk=molecule
 ------------------------------------------------------------
 #HF/6-31G* SCF=tight Test Pop=MK iop(6/33=2) iop(6/42=6) opt
 ------------------------------------------------------------
 1/18=20,38=1/1,3;
 2/9=110,17=6,18=5,40=1/2;
 3/5=1,6=6,7=1,11=9,16=1,25=1,30=1/1,2,3;
 4//1;
 5/5=2,32=2,38=5/2;
 6/7=2,8=2,9=2,10=2,15=8,20=1,28=1,33=2,42=6/1,2;
 7//1,2,3,16;
 1/18=20/3(3);
 2/9=110/2;
 6/7=2,8=2,9=2,10=2,15=8,19=2,20=1,28=1,33=2,42=6/1,2;
 99//99;
 2/9=110/2;
 3/5=1,6=6,7=1,11=9,16=1,25=1,30=1/1,2,3;
 4/5=5,16=3/1;
 5/5=2,32=2,38=5/2;
 7//1,2,3,16;
 1/18=20/3(-5);
 2/9=110/2;
 6/7=2,8=2,9=2,10=2,15=8,19=2,20=1,28=1,33=2,42=6/1,2;
 99/9=1/99;
 ---------------------
 remark line goes here
 ---------------------
 Symbolic Z-matrix:
 Charge =  0 Multiplicity = 1
 O                     3.018     9.745    -8.141 
 C                     3.773     10.674   -8.947 
 C                     1.673     9.583    -8.495 
 C                     0.915     8.654    -7.813 
 C                    -0.407     8.451    -8.199 
 N                    -2.805     9.763    -10.742 
 C                    -0.548     6.524    -6.623 
 O                    -1.18      7.516    -7.541 
 C                    -0.984     9.183    -9.237 
 O                    -4.401     14.173   -15.098 
 N                    -0.702     10.916   -11.005 
 C                    -2.38      8.946    -9.632 
 C                    -1.967     10.676   -11.371 
 O                    -5.962     16.542   -15.82 
 O                    -3.203     8.163    -9.137 
 C                    -2.558     11.514   -12.492 
 C                    -3.941     11.536   -12.637 
 C                    -4.548     12.396   -13.56 
 C                    -6.056     12.398   -13.674 
 C                    -3.76      13.235   -14.297 
 C                    -4.513     15.426   -14.388 
 C                    -5.991     15.854   -14.591 
 C                    -2.35      13.258   -14.191 
 C                    -1.528     14.253   -14.978 
 C                    -1.732     12.366   -13.281 
 C                    -0.22      10.149   -9.917 
 C                     1.125     10.376   -9.547 
 H                     1.722     11.129   -10.048 
 H                    -0.652     12.332   -13.187 
 H                    -1.702     14.103   -16.054 
 H                    -1.823     15.275   -14.698 
 H                    -0.461     14.105   -14.755 
 H                    -6.652     14.977   -14.645 
 H                    -6.325     16.515   -13.777 
 H                    -4.29      15.29    -13.319 
 H                    -3.829     16.176   -14.811 
 H                    -6.443     13.392   -13.406 
 H                    -6.346     12.157   -14.707 
 H                    -6.476     11.645   -12.99 
 H                    -4.555     10.88    -12.031 
 H                    -6.836     16.847   -16.032 
 H                     0.178     5.917    -7.183 
 H                    -0.031     7.055    -5.809 
 H                    -1.324     5.87     -6.199 
 H                    -3.744     9.668    -11.074 
 H                     1.341     8.092    -6.99 
 H                     3.77      10.337   -9.995 
 H                     3.316     11.672   -8.882 
 H                     4.809     10.72    -8.58 
 

 GradGradGradGradGradGradGradGradGradGradGradGradGradGradGradGradGradGrad
 Berny optimization.
 Initialization pass.
                           ----------------------------
                           !    Initial Parameters    !
                           ! (Angstroms and Degrees)  !
 --------------------------                            --------------------------
 ! Name  Definition              Value          Derivative Info.                !
 --------------------------------------------------------------------------------
 ! R1    R(1,2)                  1.4432         estimate D2E/DX2                !
 ! R2    R(1,3)                  1.4002         estimate D2E/DX2                !
 ! R3    R(2,47)                 1.1009         estimate D2E/DX2                !
 ! R4    R(2,48)                 1.0996         estimate D2E/DX2                !
 ! R5    R(2,49)                 1.1            estimate D2E/DX2                !
 ! R6    R(3,4)                  1.3794         estimate D2E/DX2                !
 ! R7    R(3,27)                 1.4268         estimate D2E/DX2                !
 ! R8    R(4,5)                  1.3921         estimate D2E/DX2                !
 ! R9    R(4,46)                 1.0838         estimate D2E/DX2                !
 ! R10   R(5,8)                  1.3801         estimate D2E/DX2                !
 ! R11   R(5,9)                  1.3951         estimate D2E/DX2                !
 ! R12   R(6,12)                 1.4423         estimate D2E/DX2                !
 ! R13   R(6,13)                 1.3898         estimate D2E/DX2                !
 ! R14   R(6,45)                 1.0005         estimate D2E/DX2                !
 ! R15   R(7,8)                  1.492          estimate D2E/DX2                !
 ! R16   R(7,42)                 1.0996         estimate D2E/DX2                !
 ! R17   R(7,43)                 1.1008         estimate D2E/DX2                !
 ! R18   R(7,44)                 1.0998         estimate D2E/DX2                !
 ! R19   R(9,12)                 1.47           estimate D2E/DX2                !
 ! R20   R(9,26)                 1.4069         estimate D2E/DX2                !
 ! R21   R(10,20)                1.3901         estimate D2E/DX2                !
 ! R22   R(10,21)                1.4445         estimate D2E/DX2                !
 ! R23   R(11,13)                1.3386         estimate D2E/DX2                !
 ! R24   R(11,26)                1.4158         estimate D2E/DX2                !
 ! R25   R(12,15)                1.2391         estimate D2E/DX2                !
 ! R26   R(13,16)                1.5193         estimate D2E/DX2                !
 ! R27   R(14,22)                1.4088         estimate D2E/DX2                !
 ! R28   R(14,41)                0.9497         estimate D2E/DX2                !
 ! R29   R(16,17)                1.3908         estimate D2E/DX2                !
 ! R30   R(16,25)                1.425          estimate D2E/DX2                !
 ! R31   R(17,18)                1.4            estimate D2E/DX2                !
 ! R32   R(17,40)                1.0838         estimate D2E/DX2                !
 ! R33   R(18,19)                1.5123         estimate D2E/DX2                !
 ! R34   R(18,20)                1.3668         estimate D2E/DX2                !
 ! R35   R(19,37)                1.0998         estimate D2E/DX2                !
 ! R36   R(19,38)                1.0997         estimate D2E/DX2                !
 ! R37   R(19,39)                1.1006         estimate D2E/DX2                !
 ! R38   R(20,23)                1.4142         estimate D2E/DX2                !
 ! R39   R(21,22)                1.5521         estimate D2E/DX2                !
 ! R40   R(21,35)                1.1004         estimate D2E/DX2                !
 ! R41   R(21,36)                1.0997         estimate D2E/DX2                !
 ! R42   R(22,33)                1.0995         estimate D2E/DX2                !
 ! R43   R(22,34)                1.1005         estimate D2E/DX2                !
 ! R44   R(23,24)                1.5116         estimate D2E/DX2                !
 ! R45   R(23,25)                1.4162         estimate D2E/DX2                !
 ! R46   R(24,30)                1.1003         estimate D2E/DX2                !
 ! R47   R(24,31)                1.1            estimate D2E/DX2                !
 ! R48   R(24,32)                1.1001         estimate D2E/DX2                !
 ! R49   R(25,29)                1.0846         estimate D2E/DX2                !
 ! R50   R(26,27)                1.4133         estimate D2E/DX2                !
 ! R51   R(27,28)                1.0837         estimate D2E/DX2                !
 ! A1    A(2,1,3)              115.8368         estimate D2E/DX2                !
 ! A2    A(1,2,47)             109.4628         estimate D2E/DX2                !
 ! A3    A(1,2,48)             109.5004         estimate D2E/DX2                !
 ! A4    A(1,2,49)             109.4686         estimate D2E/DX2                !
 ! A5    A(47,2,48)            109.4502         estimate D2E/DX2                !
 ! A6    A(47,2,49)            109.4493         estimate D2E/DX2                !
 ! A7    A(48,2,49)            109.496          estimate D2E/DX2                !
 ! A8    A(1,3,4)              118.7358         estimate D2E/DX2                !
 ! A9    A(1,3,27)             119.408          estimate D2E/DX2                !
 ! A10   A(4,3,27)             121.8562         estimate D2E/DX2                !
 ! A11   A(3,4,5)              118.8795         estimate D2E/DX2                !
 ! A12   A(3,4,46)             120.5758         estimate D2E/DX2                !
 ! A13   A(5,4,46)             120.5447         estimate D2E/DX2                !
 ! A14   A(4,5,8)              119.9004         estimate D2E/DX2                !
 ! A15   A(4,5,9)              121.5053         estimate D2E/DX2                !
 ! A16   A(8,5,9)              118.5917         estimate D2E/DX2                !
 ! A17   A(12,6,13)            122.8725         estimate D2E/DX2                !
 ! A18   A(12,6,45)            118.5652         estimate D2E/DX2                !
 ! A19   A(13,6,45)            118.5623         estimate D2E/DX2                !
 ! A20   A(8,7,42)             109.4716         estimate D2E/DX2                !
 ! A21   A(8,7,43)             109.4617         estimate D2E/DX2                !
 ! A22   A(8,7,44)             109.4919         estimate D2E/DX2                !
 ! A23   A(42,7,43)            109.4371         estimate D2E/DX2                !
 ! A24   A(42,7,44)            109.5067         estimate D2E/DX2                !
 ! A25   A(43,7,44)            109.4584         estimate D2E/DX2                !
 ! A26   A(5,8,7)              120.4324         estimate D2E/DX2                !
 ! A27   A(5,9,12)             120.5377         estimate D2E/DX2                !
 ! A28   A(5,9,26)             119.6902         estimate D2E/DX2                !
 ! A29   A(12,9,26)            119.7705         estimate D2E/DX2                !
 ! A30   A(20,10,21)           109.7457         estimate D2E/DX2                !
 ! A31   A(13,11,26)           115.7683         estimate D2E/DX2                !
 ! A32   A(6,12,9)             113.2845         estimate D2E/DX2                !
 ! A33   A(6,12,15)            118.0127         estimate D2E/DX2                !
 ! A34   A(9,12,15)            128.7013         estimate D2E/DX2                !
 ! A35   A(6,13,11)            124.324          estimate D2E/DX2                !
 ! A36   A(6,13,16)            117.4999         estimate D2E/DX2                !
 ! A37   A(11,13,16)           118.0651         estimate D2E/DX2                !
 ! A38   A(22,14,41)           109.4301         estimate D2E/DX2                !
 ! A39   A(13,16,17)           118.196          estimate D2E/DX2                !
 ! A40   A(13,16,25)           120.8527         estimate D2E/DX2                !
 ! A41   A(17,16,25)           120.6121         estimate D2E/DX2                !
 ! A42   A(16,17,18)           120.6379         estimate D2E/DX2                !
 ! A43   A(16,17,40)           119.7032         estimate D2E/DX2                !
 ! A44   A(18,17,40)           119.6588         estimate D2E/DX2                !
 ! A45   A(17,18,19)           118.8717         estimate D2E/DX2                !
 ! A46   A(17,18,20)           118.8568         estimate D2E/DX2                !
 ! A47   A(19,18,20)           122.2385         estimate D2E/DX2                !
 ! A48   A(18,19,37)           109.4933         estimate D2E/DX2                !
 ! A49   A(18,19,38)           109.4806         estimate D2E/DX2                !
 ! A50   A(18,19,39)           109.4375         estimate D2E/DX2                !
 ! A51   A(37,19,38)           109.5224         estimate D2E/DX2                !
 ! A52   A(37,19,39)           109.4284         estimate D2E/DX2                !
 ! A53   A(38,19,39)           109.465          estimate D2E/DX2                !
 ! A54   A(10,20,18)           117.3278         estimate D2E/DX2                !
 ! A55   A(10,20,23)           119.471          estimate D2E/DX2                !
 ! A56   A(18,20,23)           122.9845         estimate D2E/DX2                !
 ! A57   A(10,21,22)           104.4035         estimate D2E/DX2                !
 ! A58   A(10,21,35)           110.766          estimate D2E/DX2                !
 ! A59   A(10,21,36)           110.7507         estimate D2E/DX2                !
 ! A60   A(22,21,35)           110.7391         estimate D2E/DX2                !
 ! A61   A(22,21,36)           110.7283         estimate D2E/DX2                !
 ! A62   A(35,21,36)           109.3847         estimate D2E/DX2                !
 ! A63   A(14,22,21)           103.2485         estimate D2E/DX2                !
 ! A64   A(14,22,33)           111.0425         estimate D2E/DX2                !
 ! A65   A(14,22,34)           110.9895         estimate D2E/DX2                !
 ! A66   A(21,22,33)           111.0359         estimate D2E/DX2                !
 ! A67   A(21,22,34)           110.9719         estimate D2E/DX2                !
 ! A68   A(33,22,34)           109.4481         estimate D2E/DX2                !
 ! A69   A(20,23,24)           120.9211         estimate D2E/DX2                !
 ! A70   A(20,23,25)           118.2296         estimate D2E/DX2                !
 ! A71   A(24,23,25)           120.785          estimate D2E/DX2                !
 ! A72   A(23,24,30)           109.4762         estimate D2E/DX2                !
 ! A73   A(23,24,31)           109.4635         estimate D2E/DX2                !
 ! A74   A(23,24,32)           109.4717         estimate D2E/DX2                !
 ! A75   A(30,24,31)           109.4632         estimate D2E/DX2                !
 ! A76   A(30,24,32)           109.4692         estimate D2E/DX2                !
 ! A77   A(31,24,32)           109.4834         estimate D2E/DX2                !
 ! A78   A(16,25,23)           118.6463         estimate D2E/DX2                !
 ! A79   A(16,25,29)           120.6934         estimate D2E/DX2                !
 ! A80   A(23,25,29)           120.6603         estimate D2E/DX2                !
 ! A81   A(9,26,11)            123.9561         estimate D2E/DX2                !
 ! A82   A(9,26,27)            120.0365         estimate D2E/DX2                !
 ! A83   A(11,26,27)           115.9874         estimate D2E/DX2                !
 ! A84   A(3,27,26)            117.9861         estimate D2E/DX2                !
 ! A85   A(3,27,28)            121.0276         estimate D2E/DX2                !
 ! A86   A(26,27,28)           120.9863         estimate D2E/DX2                !
 ! D1    D(3,1,2,47)           -60.0295         estimate D2E/DX2                !
 ! D2    D(3,1,2,48)            59.9575         estimate D2E/DX2                !
 ! D3    D(3,1,2,49)          -179.9959         estimate D2E/DX2                !
 ! D4    D(2,1,3,4)            176.393          estimate D2E/DX2                !
 ! D5    D(2,1,3,27)            -3.489          estimate D2E/DX2                !
 ! D6    D(1,3,4,5)           -177.3688         estimate D2E/DX2                !
 ! D7    D(1,3,4,46)             2.6766         estimate D2E/DX2                !
 ! D8    D(27,3,4,5)             2.5102         estimate D2E/DX2                !
 ! D9    D(27,3,4,46)         -177.4444         estimate D2E/DX2                !
 ! D10   D(1,3,27,26)          177.4181         estimate D2E/DX2                !
 ! D11   D(1,3,27,28)           -2.525          estimate D2E/DX2                !
 ! D12   D(4,3,27,26)           -2.46           estimate D2E/DX2                !
 ! D13   D(4,3,27,28)          177.5968         estimate D2E/DX2                !
 ! D14   D(3,4,5,8)            179.2739         estimate D2E/DX2                !
 ! D15   D(3,4,5,9)             -1.3138         estimate D2E/DX2                !
 ! D16   D(46,4,5,8)            -0.7715         estimate D2E/DX2                !
 ! D17   D(46,4,5,9)           178.6408         estimate D2E/DX2                !
 ! D18   D(4,5,8,7)            -12.9663         estimate D2E/DX2                !
 ! D19   D(9,5,8,7)            167.6044         estimate D2E/DX2                !
 ! D20   D(4,5,9,12)           179.6626         estimate D2E/DX2                !
 ! D21   D(4,5,9,26)             0.1164         estimate D2E/DX2                !
 ! D22   D(8,5,9,12)            -0.9177         estimate D2E/DX2                !
 ! D23   D(8,5,9,26)           179.5362         estimate D2E/DX2                !
 ! D24   D(13,6,12,9)            0.2561         estimate D2E/DX2                !
 ! D25   D(13,6,12,15)         179.8617         estimate D2E/DX2                !
 ! D26   D(45,6,12,9)         -179.7759         estimate D2E/DX2                !
 ! D27   D(45,6,12,15)          -0.1702         estimate D2E/DX2                !
 ! D28   D(12,6,13,11)          -1.4805         estimate D2E/DX2                !
 ! D29   D(12,6,13,16)        -177.5679         estimate D2E/DX2                !
 ! D30   D(45,6,13,11)         178.5514         estimate D2E/DX2                !
 ! D31   D(45,6,13,16)           2.464          estimate D2E/DX2                !
 ! D32   D(42,7,8,5)           -59.9176         estimate D2E/DX2                !
 ! D33   D(43,7,8,5)            60.0349         estimate D2E/DX2                !
 ! D34   D(44,7,8,5)          -179.974          estimate D2E/DX2                !
 ! D35   D(5,9,12,6)          -178.5071         estimate D2E/DX2                !
 ! D36   D(5,9,12,15)            1.939          estimate D2E/DX2                !
 ! D37   D(26,9,12,6)            1.0387         estimate D2E/DX2                !
 ! D38   D(26,9,12,15)        -178.5152         estimate D2E/DX2                !
 ! D39   D(5,9,26,11)          178.2165         estimate D2E/DX2                !
 ! D40   D(5,9,26,27)           -0.0847         estimate D2E/DX2                !
 ! D41   D(12,9,26,11)          -1.3331         estimate D2E/DX2                !
 ! D42   D(12,9,26,27)        -179.6343         estimate D2E/DX2                !
 ! D43   D(21,10,20,18)         94.6394         estimate D2E/DX2                !
 ! D44   D(21,10,20,23)        -80.1727         estimate D2E/DX2                !
 ! D45   D(20,10,21,22)       -132.5554         estimate D2E/DX2                !
 ! D46   D(20,10,21,35)        -13.3207         estimate D2E/DX2                !
 ! D47   D(20,10,21,36)        108.2304         estimate D2E/DX2                !
 ! D48   D(26,11,13,6)           1.2169         estimate D2E/DX2                !
 ! D49   D(26,11,13,16)        177.2839         estimate D2E/DX2                !
 ! D50   D(13,11,26,9)           0.193          estimate D2E/DX2                !
 ! D51   D(13,11,26,27)        178.5569         estimate D2E/DX2                !
 ! D52   D(6,13,16,17)          13.4836         estimate D2E/DX2                !
 ! D53   D(6,13,16,25)        -173.164          estimate D2E/DX2                !
 ! D54   D(11,13,16,17)       -162.8549         estimate D2E/DX2                !
 ! D55   D(11,13,16,25)         10.4974         estimate D2E/DX2                !
 ! D56   D(41,14,22,21)        179.9982         estimate D2E/DX2                !
 ! D57   D(41,14,22,33)         60.9403         estimate D2E/DX2                !
 ! D58   D(41,14,22,34)        -61.0445         estimate D2E/DX2                !
 ! D59   D(13,16,17,18)        173.3267         estimate D2E/DX2                !
 ! D60   D(13,16,17,40)         -6.778          estimate D2E/DX2                !
 ! D61   D(25,16,17,18)         -0.0423         estimate D2E/DX2                !
 ! D62   D(25,16,17,40)        179.853          estimate D2E/DX2                !
 ! D63   D(13,16,25,23)       -171.6512         estimate D2E/DX2                !
 ! D64   D(13,16,25,29)          8.3709         estimate D2E/DX2                !
 ! D65   D(17,16,25,23)          1.5405         estimate D2E/DX2                !
 ! D66   D(17,16,25,29)       -178.4374         estimate D2E/DX2                !
 ! D67   D(16,17,18,19)       -179.3353         estimate D2E/DX2                !
 ! D68   D(16,17,18,20)         -1.3759         estimate D2E/DX2                !
 ! D69   D(40,17,18,19)          0.7693         estimate D2E/DX2                !
 ! D70   D(40,17,18,20)        178.7287         estimate D2E/DX2                !
 ! D71   D(17,18,19,37)        117.8752         estimate D2E/DX2                !
 ! D72   D(17,18,19,38)       -122.0428         estimate D2E/DX2                !
 ! D73   D(17,18,19,39)         -2.0653         estimate D2E/DX2                !
 ! D74   D(20,18,19,37)        -60.0118         estimate D2E/DX2                !
 ! D75   D(20,18,19,38)         60.0702         estimate D2E/DX2                !
 ! D76   D(20,18,19,39)       -179.9523         estimate D2E/DX2                !
 ! D77   D(17,18,20,10)       -173.3069         estimate D2E/DX2                !
 ! D78   D(17,18,20,23)          1.308          estimate D2E/DX2                !
 ! D79   D(19,18,20,10)          4.5804         estimate D2E/DX2                !
 ! D80   D(19,18,20,23)        179.1953         estimate D2E/DX2                !
 ! D81   D(10,20,23,24)         -2.4065         estimate D2E/DX2                !
 ! D82   D(10,20,23,25)        174.6987         estimate D2E/DX2                !
 ! D83   D(18,20,23,24)       -176.911          estimate D2E/DX2                !
 ! D84   D(18,20,23,25)          0.1942         estimate D2E/DX2                !
 ! D85   D(10,21,22,14)        -86.1212         estimate D2E/DX2                !
 ! D86   D(10,21,22,33)         32.9413         estimate D2E/DX2                !
 ! D87   D(10,21,22,34)        154.9093         estimate D2E/DX2                !
 ! D88   D(35,21,22,14)        154.6258         estimate D2E/DX2                !
 ! D89   D(35,21,22,33)        -86.3116         estimate D2E/DX2                !
 ! D90   D(35,21,22,34)         35.6564         estimate D2E/DX2                !
 ! D91   D(36,21,22,14)         33.1081         estimate D2E/DX2                !
 ! D92   D(36,21,22,33)        152.1707         estimate D2E/DX2                !
 ! D93   D(36,21,22,34)        -85.8613         estimate D2E/DX2                !
 ! D94   D(20,23,24,30)        -59.989          estimate D2E/DX2                !
 ! D95   D(20,23,24,31)         59.9996         estimate D2E/DX2                !
 ! D96   D(20,23,24,32)       -179.9899         estimate D2E/DX2                !
 ! D97   D(25,23,24,30)        122.98           estimate D2E/DX2                !
 ! D98   D(25,23,24,31)       -117.0315         estimate D2E/DX2                !
 ! D99   D(25,23,24,32)          2.979          estimate D2E/DX2                !
 ! D100  D(20,23,25,16)         -1.5984         estimate D2E/DX2                !
 ! D101  D(20,23,25,29)        178.3795         estimate D2E/DX2                !
 ! D102  D(24,23,25,16)        175.5108         estimate D2E/DX2                !
 ! D103  D(24,23,25,29)         -4.5112         estimate D2E/DX2                !
 ! D104  D(9,26,27,3)            1.2024         estimate D2E/DX2                !
 ! D105  D(9,26,27,28)        -178.8544         estimate D2E/DX2                !
 ! D106  D(11,26,27,3)        -177.23           estimate D2E/DX2                !
 ! D107  D(11,26,27,28)          2.7131         estimate D2E/DX2                !
 --------------------------------------------------------------------------------
 Trust Radius=3.00D-01 FncErr=1.00D-07 GrdErr=1.00D-07
 Number of steps in this run= 254 maximum allowed number of steps= 294.
 GradGradGradGradGradGradGradGradGradGradGradGradGradGradGradGradGradGrad

                          Input orientation:                          
 ---------------------------------------------------------------------
 Center     Atomic     Atomic              Coordinates (Angstroms)
 Number     Number      Type              X           Y           Z
 ---------------------------------------------------------------------
    1          8             0        3.018000    9.745000   -8.141000
    2          6             0        3.773000   10.674000   -8.947000
    3          6             0        1.673000    9.583000   -8.495000
    4          6             0        0.915000    8.654000   -7.813000
    5          6             0       -0.407000    8.451000   -8.199000
    6          7             0       -2.805000    9.763000  -10.742000
    7          6             0       -0.548000    6.524000   -6.623000
    8          8             0       -1.180000    7.516000   -7.541000
    9          6             0       -0.984000    9.183000   -9.237000
   10          8             0       -4.401000   14.173000  -15.098000
   11          7             0       -0.702000   10.916000  -11.005000
   12          6             0       -2.380000    8.946000   -9.632000
   13          6             0       -1.967000   10.676000  -11.371000
   14          8             0       -5.962000   16.542000  -15.820000
   15          8             0       -3.203000    8.163000   -9.137000
   16          6             0       -2.558000   11.514000  -12.492000
   17          6             0       -3.941000   11.536000  -12.637000
   18          6             0       -4.548000   12.396000  -13.560000
   19          6             0       -6.056000   12.398000  -13.674000
   20          6             0       -3.760000   13.235000  -14.297000
   21          6             0       -4.513000   15.426000  -14.388000
   22          6             0       -5.991000   15.854000  -14.591000
   23          6             0       -2.350000   13.258000  -14.191000
   24          6             0       -1.528000   14.253000  -14.978000
   25          6             0       -1.732000   12.366000  -13.281000
   26          6             0       -0.220000   10.149000   -9.917000
   27          6             0        1.125000   10.376000   -9.547000
   28          1             0        1.722000   11.129000  -10.048000
   29          1             0       -0.652000   12.332000  -13.187000
   30          1             0       -1.702000   14.103000  -16.054000
   31          1             0       -1.823000   15.275000  -14.698000
   32          1             0       -0.461000   14.105000  -14.755000
   33          1             0       -6.652000   14.977000  -14.645000
   34          1             0       -6.325000   16.515000  -13.777000
   35          1             0       -4.290000   15.290000  -13.319000
   36          1             0       -3.829000   16.176000  -14.811000
   37          1             0       -6.443000   13.392000  -13.406000
   38          1             0       -6.346000   12.157000  -14.707000
   39          1             0       -6.476000   11.645000  -12.990000
   40          1             0       -4.555000   10.880000  -12.031000
   41          1             0       -6.836000   16.847000  -16.032000
   42          1             0        0.178000    5.917000   -7.183000
   43          1             0       -0.031000    7.055000   -5.809000
   44          1             0       -1.324000    5.870000   -6.199000
   45          1             0       -3.744000    9.668000  -11.074000
   46          1             0        1.341000    8.092000   -6.990000
   47          1             0        3.770000   10.337000   -9.995000
   48          1             0        3.316000   11.672000   -8.882000
   49          1             0        4.809000   10.720000   -8.580000
 ---------------------------------------------------------------------
                    Distance matrix (angstroms):
                    1          2          3          4          5
     1  O    0.000000
     2  C    1.443157   0.000000
     3  C    1.400209   2.409271   0.000000
     4  C    2.391751   3.678929   1.379394   0.000000
     5  C    3.661752   4.793082   2.386512   1.392081   0.000000
     6  N    6.377527   6.879101   5.013371   4.862851   3.733443
     7  C    5.039397   6.426081   4.218377   2.844885   2.493388
     8  O    4.790788   6.040034   3.649961   2.399594   1.380115
     9  C    4.187250   4.993619   2.787510   2.431834   1.395062
    10  O   11.092727  10.811664  10.077757  10.573100   9.812722
    11  N    4.838609   4.931486   3.703730   4.233225   3.746583
    12  C    5.656844   6.427645   4.257387   3.775056   2.488221
    13  C    6.012478   6.230841   4.766091   5.005374   4.176818
    14  O   13.631091  13.283139  12.663986  13.176711  12.425858
    15  O    6.495813   7.416589   5.118978   4.353387   2.963175
    16  C    7.290565   7.304395   6.132384   6.491099   5.695491
    17  C    8.476401   8.594471   7.244817   7.426819   6.457726
    18  C    9.676658   9.668717   8.501061   8.767836   7.839083
    19  C   10.953994  11.042008   9.720273   9.847015   8.801456
    20  C    9.798863   9.587873   8.747445   9.213221   8.444813
    21  C   11.314360  10.992897  10.350589  10.888241  10.188895
    22  C   12.652449  12.410594  11.628566  12.061265  11.262465
    23  C    8.818112   8.465679   7.882548   8.516803   7.923797
    24  C    9.366576   8.791064   8.607241   9.415640   8.993035
    25  C    7.473402   7.207735   6.499608   7.119310   6.550540
    26  C    3.715109   4.142532   2.434315   2.819586   2.422746
    27  C    2.440993   2.731430   1.426835   2.452782   2.805308
    28  H    2.689186   2.371883   2.191877   3.431049   3.888846
    29  H    6.754523   6.348794   5.914177   6.697988   6.324740
    30  H   10.192455   9.604328   9.431835  10.220292   9.763358
    31  H    9.849387   9.249779   9.115815   9.936675   9.529377
    32  H    8.652054   7.964382   8.011869   8.932981   8.657469
    33  H   12.774378  12.635808  11.671476  11.996501  11.096829
    34  H   12.840913  12.625996  11.828785  12.238555  11.452725
    35  H   10.534020  10.268097   9.560240  10.071969   9.384243
    36  H   11.520767  11.065663  10.659808  11.316273  10.728665
    37  H   11.425032  11.473311  10.222322  10.386070   9.378679
    38  H   11.688225  11.737591  10.465122  10.607562   9.558254
    39  H   10.828612  11.060321   9.532212   9.506539   8.365888
    40  H    8.588984   8.883078   7.278289   7.257238   6.147371
    41  H   14.484737  14.172298  13.489816  13.955472  13.159816
    42  H    4.861784   6.218100   4.170842   2.903659   2.792067
    43  H    4.687294   6.116749   4.063126   2.732715   2.793258
    44  H    6.135141   7.523917   5.295280   3.920303   3.391526
    45  H    7.371096   7.876640   6.000196   5.776556   4.569714
    46  H    2.620981   4.051074   2.144372   1.083812   2.155473
    47  H    2.086452   1.100855   2.686247   3.967951   4.922392
    48  H    2.085956   1.099581   2.685729   4.001985   4.970117
    49  H    2.085912   1.100046   3.336838   4.474358   5.700893
                    6          7          8          9         10
     6  N    0.000000
     7  C    5.705377   0.000000
     8  O    4.235096   1.492050   0.000000
     9  C    2.432584   3.754114   2.386152   0.000000
    10  O    6.400785  12.049001  10.573492   8.421835   0.000000
    11  N    2.412714   6.206070   4.877272   2.491714   6.406504
    12  C    1.442295   4.275089   2.803066   1.470037   7.828354
    13  C    1.389768   6.464996   5.027312   2.783755   5.660733
    14  O    9.039224  14.637504  13.148309  11.057633   2.927485
    15  O    2.300963   4.006937   2.656756   2.444251   8.549200
    16  C    2.487873   7.961492   6.511166   4.301867   4.154295
    17  C    2.832852   8.532338   7.053562   5.083351   3.636192
    18  C    4.232241   9.929872   8.449035   6.458622   2.354736
    19  C    5.109682  10.703202   9.231630   7.466484   2.813792
    20  C    5.060122  10.688533   9.219918   7.051842   1.390081
    21  C    6.948392  12.460419  10.979909   8.829592   1.444525
    22  C    7.878177  13.422525  11.931910   9.911489   2.368736
    23  C    4.931293  10.289246   8.863519   6.558483   2.422081
    24  C    6.303533  11.423829  10.040779   7.678536   2.876618
    25  C    3.791234   8.936430   7.534906   5.200474   3.700040
    26  C    2.740775   4.909037   3.674189   1.406859   7.779209
    27  C    4.153155   5.117285   4.185291   2.442791   8.704452
    28  H    4.779259   6.171673   5.268816   3.430317   8.500563
    29  H    4.148879   8.765260   7.439755   5.062502   4.593060
    30  H    6.947629  12.153877  10.776466   8.437619   2.864164
    31  H    6.855392  11.975444  10.575357   8.224288   2.832047
    32  H    6.360147  11.117938   9.796616   7.412688   3.955486
    33  H    7.564299  13.155398  11.665167   9.743876   2.432823
    34  H    8.197020  13.578421  12.097137  10.143772   3.306324
    35  H    6.276455  11.648250  10.173124   8.055297   2.103533
    36  H    7.663674  13.075527  11.613169   9.384325   2.102751
    37  H    5.788055  11.310594   9.829790   8.055863   2.764523
    38  H    5.830192  11.432347   9.978877   8.216850   2.828456
    39  H    4.698049  10.094777   8.647997   7.092850   3.891025
    40  H    2.443708   8.017309   6.547306   4.841310   4.502672
    41  H    9.716796  15.317720  13.825881  11.796390   3.735218
    42  H    6.029634   1.099602   2.128175   4.029382  12.319740
    43  H    6.273980   1.100839   2.128978   4.145814  12.491931
    44  H    6.163413   1.099849   2.128618   4.507883  12.553881
    45  H    1.000485   6.317480   4.866959   3.350730   6.076121
    46  H    5.836014   2.482264   2.644016   3.412465  11.648553
    47  H    6.642146   6.674914   6.203439   4.950434  10.369221
    48  H    6.676116   6.821692   6.267745   4.981079  10.219870
    49  H    7.972646   7.080517   6.871190   6.029334  11.799645
                   11         12         13         14         15
    11  N    0.000000
    12  C    2.929456   0.000000
    13  C    1.338574   2.487487   0.000000
    14  O    9.083155  10.431744   8.376370   0.000000
    15  O    4.162143   1.239130   3.582404  11.067168   0.000000
    16  C    2.452246   3.847845   1.519265   6.924131   4.785525
    17  C    3.679531   4.263197   2.497805   6.267054   4.916480
    18  C    4.848726   5.659674   3.796272   4.929129   6.268193
    19  C    6.163214   6.462743   4.998901   4.667643   6.830754
    20  C    5.056322   6.485534   4.280748   4.254948   7.256792
    21  C    6.805036   8.316227   6.176318   2.322861   9.057608
    22  C    8.075690   9.238586   7.305659   1.408768   9.832118
    23  C    4.283861   6.275247   3.842631   5.146342   7.227001
    24  C    5.253815   7.580888   5.098833   5.060518   8.602965
    25  C    2.888525   5.042966   2.561137   6.463621   6.082909
    26  C    1.415753   2.488782   2.333207  10.425278   3.667545
    27  C    2.399019   3.786443   3.602421  11.295825   4.878222
    28  H    2.614765   4.665292   3.945156  11.029978   5.820885
    29  H    2.601669   5.204710   2.787367   7.269999   6.347493
    30  H    6.053872   8.264165   5.809048   4.914375   9.240210
    31  H    5.822007   8.125937   5.678069   4.471632   9.132889
    32  H    4.928519   7.519506   5.047527   6.110171   8.624839
    33  H    8.071172   8.930460   7.153104   2.075078   9.416170
    34  H    8.405410   9.488615   7.672999   2.075174  10.051487
    35  H    6.112300   7.582111   5.520872   3.258541   8.334556
    36  H    7.206342   9.010801   6.749122   2.387829   9.838410
    37  H    6.697347   7.107599   5.617157   3.997656   7.487617
    38  H    6.862916   7.196895   5.700693   4.540314   7.540251
    39  H    6.149044   5.944576   4.887863   5.679235   6.138604
    40  H    3.987428   3.771761   2.678612   6.956609   4.193475
    41  H    9.903204  11.101430   9.138562   0.949655  11.668400
    42  H    6.353903   4.660022   6.692417  15.006265   4.504863
    43  H    6.508147   4.869190   6.913435  15.013329   4.729147
    44  H    6.996187   4.728890   7.089476  15.098552   4.173767
    45  H    3.288773   2.112142   2.064462   8.642680   2.511907
    46  H    5.316865   4.642771   6.067378  14.237458   5.026190
    47  H    4.621052   6.315786   5.909439  12.928437   7.354262
    48  H    4.606842   6.359087   5.924291  12.567181   7.407798
    49  H    6.024132   7.479004   7.328424  14.224195   8.428561
                   16         17         18         19         20
    16  C    0.000000
    17  C    1.390754   0.000000
    18  C    2.424592   1.399992   0.000000
    19  C    3.796654   2.508314   1.512304   0.000000
    20  C    2.768514   2.382218   1.366760   2.521966   0.000000
    21  C    4.766611   4.304101   3.141291   3.472669   2.318571
    22  C    5.918352   5.163888   3.886254   3.576178   3.452964
    23  C    2.443645   2.812736   2.443851   3.839443   1.414166
    24  C    3.839690   4.322608   3.818321   5.064013   2.545959
    25  C    1.425027   2.446082   2.829946   4.341941   2.429033
    26  C    3.736321   4.813316   6.087039   7.296023   6.421791
    27  C    4.851037   6.046326   7.236539   8.525689   7.389155
    28  H    4.943659   6.240043   7.297420   8.674994   7.248556
    29  H    2.187461   3.428358   3.914338   5.426301   3.421575
    30  H    4.485923   4.824780   4.151337   5.246784   2.841802
    31  H    4.421740   4.765896   4.124234   5.219578   2.841544
    32  H    4.028878   4.816231   4.588276   5.948650   3.442392
    33  H    5.778288   4.818928   3.502228   2.819450   3.394014
    34  H    6.391519   5.636798   4.491211   4.127064   4.196192
    35  H    4.235791   3.831376   2.915456   3.407117   2.336752
    36  H    5.359799   5.125273   4.046030   4.530517   2.986375
    37  H    4.410839   3.208754   2.146336   1.099831   2.831434
    38  H    4.434932   3.233352   2.146051   1.099668   2.831533
    39  H    3.951694   2.561780   2.146179   1.100575   3.407786
    40  H    2.145341   1.083775   2.153171   2.693840   3.363452
    41  H    7.698946   6.936409   5.581857   5.095308   5.051588
    42  H    8.185205   8.847906  10.245909  11.090500  10.939377
    43  H    8.422048   9.054780  10.440669  11.256398  11.141992
    44  H    8.542795   8.966610  10.352158  10.994646  11.214050
    45  H    2.612477   2.443604   3.777380   4.422470   4.807439
    46  H    7.562029   8.464589   9.816804  10.859701  10.288970
    47  H    6.903906   8.238767   9.281047  10.692663   9.143659
    48  H    6.896444   8.172060   9.178799  10.551053   9.046268
    49  H    8.378954   9.679236  10.731394  12.116631  10.603635
                   21         22         23         24         25
    21  C    0.000000
    22  C    1.552056   0.000000
    23  C    3.068811   4.489554   0.000000
    24  C    3.261020   4.757241   1.511647   0.000000
    25  C    4.280539   5.658739   1.416223   2.546015   0.000000
    26  C    8.140419   9.364707   5.698233   6.645856   4.303223
    27  C    8.984699  10.299897   6.476750   7.180898   5.105419
    28  H    8.727831  10.121998   6.186944   6.680328   4.890048
    29  H    5.091420   6.548330   2.179150   2.768627   1.084616
    30  H    3.525281   4.858178   2.145856   1.100251   3.272247
    31  H    2.712011   4.209384   2.145476   1.099959   3.237044
    32  H    4.277667   5.802310   2.145653   1.100055   2.610026
    33  H    2.200675   1.099530   4.654920   5.185599   5.734476
    34  H    2.200588   1.100488   5.155586   5.437854   6.209337
    35  H    1.100448   2.197608   2.941600   3.384715   3.885175
    36  H    1.099675   2.196891   3.329649   3.003401   4.610250
    37  H    2.970922   2.769472   4.169752   5.231609   4.823051
    38  H    3.761384   3.715816   4.176898   5.261158   4.833855
    39  H    4.483719   4.529250   4.589994   5.936035   4.807292
    40  H    5.120872   5.775498   3.896474   5.405984   3.426372
    41  H    3.180928   1.943336   6.032777   6.001218   7.327904
    42  H   12.819461  13.844818  10.459117  11.539556   9.078728
    43  H   12.796922  13.786498  10.682364  11.752565   9.323674
    44  H   12.982549  13.852321  10.931939  12.140311   9.618690
    45  H    6.687938   7.462231   4.954495   6.416705   4.024698
    46  H   11.949363  13.106566   9.600283  10.487956   8.202871
    47  H   10.667917  12.117658   7.974526   8.260396   6.722101
    48  H   10.281138  11.691965   7.924925   8.202872   6.731652
    49  H   11.949016  13.383948   9.443307   9.673369   8.221520
                   26         27         28         29         30
    26  C    0.000000
    27  C    1.413313   0.000000
    28  H    2.179203   1.083706   0.000000
    29  H    3.955378   4.498140   4.115386   0.000000
    30  H    7.449376   8.013957   7.525988   3.529678   0.000000
    31  H    7.190511   7.695694   7.167904   3.509360   1.796374
    32  H    6.254140   6.598795   5.981464   2.374581   1.796521
    33  H    9.329212  10.374996  10.298708   6.717275   5.220312
    34  H    9.627906  10.539579  10.376350   7.073084   5.689868
    35  H    7.387042   8.227855   8.009838   4.690654   3.948030
    36  H    8.561591   9.267784   8.886618   5.244716   3.219706
    37  H    7.836830   9.014586   9.113976   5.891285   5.476724
    38  H    8.031441   9.252751   9.373137   5.895987   5.212299
    39  H    7.128736   8.440368   8.725183   5.867687   6.182308
    40  H    4.878072   6.219861   6.587490   4.321811   5.891678
    41  H   11.226214  12.136993  11.905593   8.168299   5.821338
    42  H    5.054007   5.134977   6.144681   8.825482  12.216368
    43  H    5.146282   5.132058   6.135113   9.092153  12.546975
    44  H    5.775135   6.124601   7.193747   9.541550  12.847031
    45  H    3.740132   5.151714   5.750161   4.595882   6.974195
    46  H    3.903242   3.435340   4.326649   7.768684  11.293718
    47  H    3.995188   2.682955   2.196446   5.807148   8.990941
    48  H    3.986734   2.631031   2.048229   5.891829   9.084474
    49  H    5.234926   3.824301   3.442655   7.324310  10.473705
                   31         32         33         34         35
    31  H    0.000000
    32  H    1.796439   0.000000
    33  H    4.838476   6.253076   0.000000
    34  H    4.759606   6.414911   1.796050   0.000000
    35  H    2.826297   4.257647   2.726773   2.419011   0.000000
    36  H    2.201955   3.954188   3.071561   2.722883   1.795433
    37  H    5.153577   6.173532   2.022629   3.147172   2.871477
    38  H    5.493590   6.199212   2.837231   4.456176   3.996169
    39  H    6.143661   6.734022   3.724544   4.935491   4.262964
    40  H    5.821747   5.880615   5.292997   6.159110   4.601877
    41  H    5.420416   7.056197   2.335492   2.335887   4.033204
    42  H   12.167637  11.170803  13.579910  14.074354  12.060956
    43  H   12.239035  11.398172  13.589357  13.877862  11.931237
    44  H   12.686056  11.906516  13.515175  13.991144  12.174890
    45  H    6.947090   6.634367   7.028086   7.800588   6.078242
    46  H   11.000893   9.984919  13.034197  13.258124  11.116457
    47  H    8.819507   7.399783  12.319504  12.424984  10.027202
    48  H    8.556681   7.394413  11.978991  11.847555   9.519881
    49  H   10.107491   8.795553  13.647740  13.585168  11.230976
                   36         37         38         39         40
    36  H    0.000000
    37  H    4.069113   0.000000
    38  H    4.743255   1.796451   0.000000
    39  H    5.554513   1.796150   1.796422   0.000000
    40  H    6.025205   3.430060   3.464013   2.279287   0.000000
    41  H    3.314081   4.357448   4.898145   6.036901   7.537642
    42  H   13.397370  11.766010  11.752053  10.526488   8.398557
    43  H   13.366131  11.789221  12.045083  10.685171   8.591303
    44  H   13.662182  11.607131  11.710376  10.296184   8.339765
    45  H    7.505095   5.156646   5.115097   3.878583   1.744280
    46  H   12.379338  11.394986  11.626104  10.475175   8.243024
    47  H   10.725324  11.192556  11.307024  10.754599   8.587536
    48  H   10.319403  10.893257  11.292480  10.618835   8.514465
    49  H   11.966969  12.531455  12.807776  12.151335   9.980957
                   41         42         43         44         45
    41  H    0.000000
    42  H   15.715149   0.000000
    43  H   15.706719   1.796274   0.000000
    44  H   15.734185   1.796237   1.796712   0.000000
    45  H    9.256364   6.677722   6.952292   6.636779   0.000000
    46  H   15.009035   2.473953   2.086268   3.558819   6.709699
    47  H   13.831584   6.351866   6.537715   7.766115   7.620499
    48  H   13.452369   6.771534   6.477841   7.898816   7.659274
    49  H   15.122118   6.816640   6.673550   8.173454   8.971095
                   46         47         48         49
    46  H    0.000000
    47  H    4.468791   0.000000
    48  H    4.505185   1.796416   0.000000
    49  H    4.632657   1.796785   1.796262   0.000000
 Stoichiometry    C20H22N2O5
 Framework group  C1[X(C20H22N2O5)]
 Deg. of freedom   141
 Full point group                 C1
 Largest Abelian subgroup         C1      NOp   1
 Largest concise Abelian subgroup C1      NOp   1
                         Standard orientation:                         
 ---------------------------------------------------------------------
 Center     Atomic     Atomic              Coordinates (Angstroms)
 Number     Number      Type              X           Y           Z
 ---------------------------------------------------------------------
    1          8             0        5.487712    2.640341    0.409770
    2          6             0        4.835547    3.918643    0.257033
    3          6             0        4.658364    1.516503    0.311015
    4          6             0        5.230315    0.262775    0.372391
    5          6             0        4.416100   -0.855900    0.219062
    6          7             0        0.807090   -1.624461   -0.349233
    7          6             0        6.447247   -2.301583    0.181299
    8          8             0        4.968486   -2.119926    0.261779
    9          6             0        3.038781   -0.735139    0.033035
   10          8             0       -5.311770    0.252222   -0.436791
   11          7             0        1.070180    0.770590   -0.223928
   12          6             0        2.199961   -1.930748   -0.134031
   13          6             0        0.319426   -0.323957   -0.397469
   14          8             0       -7.937383    0.322089    0.856050
   15          8             0        2.535888   -3.123118   -0.104866
   16          6             0       -1.178565   -0.142568   -0.574353
   17          6             0       -2.000518   -1.249629   -0.392671
   18          6             0       -3.393820   -1.113526   -0.405441
   19          6             0       -4.249483   -2.341507   -0.188717
   20          6             0       -3.933510    0.131175   -0.571233
   21          6             0       -5.637716    0.644213    0.914784
   22          6             0       -6.778460   -0.321771    1.332463
   23          6             0       -3.148085    1.292187   -0.758378
   24          6             0       -3.791277    2.655768   -0.868069
   25          6             0       -1.738981    1.151722   -0.777939
   26          6             0        2.450002    0.542043   -0.004347
   27          6             0        3.252241    1.695595    0.147918
   28          1             0        2.812478    2.686032    0.140041
   29          1             0       -1.099667    2.011843   -0.944854
   30          1             0       -4.478094    2.669339   -1.727516
   31          1             0       -4.352499    2.871452    0.053028
   32          1             0       -3.011531    3.418683   -1.009769
   33          1             0       -6.652873   -1.307619    0.862041
   34          1             0       -6.814249   -0.439500    2.426050
   35          1             0       -4.765985    0.526808    1.576060
   36          1             0       -5.981154    1.688431    0.945523
   37          1             0       -4.849988   -2.214004    0.723843
   38          1             0       -4.917031   -2.480263   -1.051501
   39          1             0       -3.601827   -3.224717   -0.080338
   40          1             0       -1.558569   -2.227568   -0.241400
   41          1             0       -8.700036   -0.202545    1.068099
   42          1             0        6.816534   -1.885769   -0.767305
   43          1             0        6.927391   -1.778125    1.022310
   44          1             0        6.688571   -3.373474    0.231108
   45          1             0        0.163885   -2.381290   -0.469513
   46          1             0        6.295483    0.150237    0.537927
   47          1             0        4.362379    3.972757   -0.735472
   48          1             0        4.067671    4.034297    1.035536
   49          1             0        5.579356    4.723454    0.352580
 ---------------------------------------------------------------------
 Rotational constants (GHZ):      0.4026806      0.0720763      0.0629075
 Standard basis: 6-31G(d) (6D, 7F)
 There are   449 symmetry adapted basis functions of A   symmetry.
 Integral buffers will be    131072 words long.
 Raffenetti 1 integral format.
 Two-electron integral symmetry is turned on.
   449 basis functions,   844 primitive gaussians,   449 cartesian basis functions
    98 alpha electrons       98 beta electrons
       nuclear repulsion energy      2354.4370631656 Hartrees.
 NAtoms=   49 NActive=   49 NUniq=   49 SFac= 7.50D-01 NAtFMM=   80 NAOKFM=F Big=F
 One-electron integrals computed using PRISM.
 NBasis=   449 RedAO= T  NBF=   449
 NBsUse=   449 1.00D-06 NBFU=   449
 Harris functional with IExCor=  205 diagonalized for initial guess.
 ExpMin= 1.61D-01 ExpMax= 5.48D+03 ExpMxC= 8.25D+02 IAcc=1 IRadAn=         1 AccDes= 1.00D-06
 HarFok:  IExCor= 205 AccDes= 1.00D-06 IRadAn=         1 IDoV=1
 ScaDFX=  1.000000  1.000000  1.000000  1.000000
 Initial guess orbital symmetries:
       Occupied  (A) (A) (A) (A) (A) (A) (A) (A) (A) (A) (A) (A)
                 (A) (A) (A) (A) (A) (A) (A) (A) (A) (A) (A) (A)
                 (A) (A) (A) (A) (A) (A) (A) (A) (A) (A) (A) (A)
                 (A) (A) (A) (A) (A) (A) (A) (A) (A) (A) (A) (A)
                 (A) (A) (A) (A) (A) (A) (A) (A) (A) (A) (A) (A)
                 (A) (A) (A) (A) (A) (A) (A) (A) (A) (A) (A) (A)
                 (A) (A) (A) (A) (A) (A) (A) (A) (A) (A) (A) (A)
                 (A) (A) (A) (A) (A) (A) (A) (A) (A) (A) (A) (A)
                 (A) (A)
       Virtual   (A) (A) (A) (A) (A) (A) (A) (A) (A) (A) (A) (A)
                 (A) (A) (A) (A) (A) (A) (A) (A) (A) (A) (A) (A)
                 (A) (A) (A) (A) (A) (A) (A) (A) (A) (A) (A) (A)
                 (A) (A) (A) (A) (A) (A) (A) (A) (A) (A) (A) (A)
                 (A) (A) (A) (A) (A) (A) (A) (A) (A) (A) (A) (A)
                 (A) (A) (A) (A) (A) (A) (A) (A) (A) (A) (A) (A)
                 (A) (A) (A) (A) (A) (A) (A) (A) (A) (A) (A) (A)
                 (A) (A) (A) (A) (A) (A) (A) (A) (A) (A) (A) (A)
                 (A) (A) (A) (A) (A) (A) (A) (A) (A) (A) (A) (A)
                 (A) (A) (A) (A) (A) (A) (A) (A) (A) (A) (A) (A)
                 (A) (A) (A) (A) (A) (A) (A) (A) (A) (A) (A) (A)
                 (A) (A) (A) (A) (A) (A) (A) (A) (A) (A) (A) (A)
                 (A) (A) (A) (A) (A) (A) (A) (A) (A) (A) (A) (A)
                 (A) (A) (A) (A) (A) (A) (A) (A) (A) (A) (A) (A)
                 (A) (A) (A) (A) (A) (A) (A) (A) (A) (A) (A) (A)
                 (A) (A) (A) (A) (A) (A) (A) (A) (A) (A) (A) (A)
                 (A) (A) (A) (A) (A) (A) (A) (A) (A) (A) (A) (A)
                 (A) (A) (A) (A) (A) (A) (A) (A) (A) (A) (A) (A)
                 (A) (A) (A) (A) (A) (A) (A) (A) (A) (A) (A) (A)
                 (A) (A) (A) (A) (A) (A) (A) (A) (A) (A) (A) (A)
                 (A) (A) (A) (A) (A) (A) (A) (A) (A) (A) (A) (A)
                 (A) (A) (A) (A) (A) (A) (A) (A) (A) (A) (A) (A)
                 (A) (A) (A) (A) (A) (A) (A) (A) (A) (A) (A) (A)
                 (A) (A) (A) (A) (A) (A) (A) (A) (A) (A) (A) (A)
                 (A) (A) (A) (A) (A) (A) (A) (A) (A) (A) (A) (A)
                 (A) (A) (A) (A) (A) (A) (A) (A) (A) (A) (A) (A)
                 (A) (A) (A) (A) (A) (A) (A) (A) (A) (A) (A) (A)
                 (A) (A) (A) (A) (A) (A) (A) (A) (A) (A) (A) (A)
                 (A) (A) (A) (A) (A) (A) (A) (A) (A) (A) (A) (A)
                 (A) (A) (A)
 The electronic state of the initial guess is 1-A.
 Requested convergence on RMS density matrix=1.00D-08 within 128 cycles.
 Requested convergence on MAX density matrix=1.00D-06.
 Requested convergence on             energy=1.00D-06.
 No special actions if energy rises.
 Integral accuracy reduced to 1.0D-05 until final iterations.
 Initial convergence to 1.0D-05 achieved.  Increase integral accuracy.
 SCF Done:  E(RHF) =  -1253.32401334     A.U. after   16 cycles
             Convg  =    0.6135D-08             -V/T =  2.0029
             S**2   =   0.0000

 **********************************************************************

            Population analysis using the SCF density.

 **********************************************************************

 Orbital symmetries:
 BldTbl:  Degeneracy threshold= 1.00D-02
       Occupied  (A) (A) (A) (A) (A) (A) (A) (A) (A) (A) (A) (A)
                 (A) (A) (A) (A) (A) (A) (A) (A) (A) (A) (A) (A)
                 (A) (A) (A) (A) (A) (A) (A) (A) (A) (A) (A) (A)
                 (A) (A) (A) (A) (A) (A) (A) (A) (A) (A) (A) (A)
                 (A) (A) (A) (A) (A) (A) (A) (A) (A) (A) (A) (A)
                 (A) (A) (A) (A) (A) (A) (A) (A) (A) (A) (A) (A)
                 (A) (A) (A) (A) (A) (A) (A) (A) (A) (A) (A) (A)
                 (A) (A) (A) (A) (A) (A) (A) (A) (A) (A) (A) (A)
                 (A) (A)
       Virtual   (A) (A) (A) (A) (A) (A) (A) (A) (A) (A) (A) (A)
                 (A) (A) (A) (A) (A) (A) (A) (A) (A) (A) (A) (A)
                 (A) (A) (A) (A) (A) (A) (A) (A) (A) (A) (A) (A)
                 (A) (A) (A) (A) (A) (A) (A) (A) (A) (A) (A) (A)
                 (A) (A) (A) (A) (A) (A) (A) (A) (A) (A) (A) (A)
                 (A) (A) (A) (A) (A) (A) (A) (A) (A) (A) (A) (A)
                 (A) (A) (A) (A) (A) (A) (A) (A) (A) (A) (A) (A)
                 (A) (A) (A) (A) (A) (A) (A) (A) (A) (A) (A) (A)
                 (A) (A) (A) (A) (A) (A) (A) (A) (A) (A) (A) (A)
                 (A) (A) (A) (A) (A) (A) (A) (A) (A) (A) (A) (A)
                 (A) (A) (A) (A) (A) (A) (A) (A) (A) (A) (A) (A)
                 (A) (A) (A) (A) (A) (A) (A) (A) (A) (A) (A) (A)
                 (A) (A) (A) (A) (A) (A) (A) (A) (A) (A) (A) (A)
                 (A) (A) (A) (A) (A) (A) (A) (A) (A) (A) (A) (A)
                 (A) (A) (A) (A) (A) (A) (A) (A) (A) (A) (A) (A)
                 (A) (A) (A) (A) (A) (A) (A) (A) (A) (A) (A) (A)
                 (A) (A) (A) (A) (A) (A) (A) (A) (A) (A) (A) (A)
                 (A) (A) (A) (A) (A) (A) (A) (A) (A) (A) (A) (A)
                 (A) (A) (A) (A) (A) (A) (A) (A) (A) (A) (A) (A)
                 (A) (A) (A) (A) (A) (A) (A) (A) (A) (A) (A) (A)
                 (A) (A) (A) (A) (A) (A) (A) (A) (A) (A) (A) (A)
                 (A) (A) (A) (A) (A) (A) (A) (A) (A) (A) (A) (A)
                 (A) (A) (A) (A) (A) (A) (A) (A) (A) (A) (A) (A)
                 (A) (A) (A) (A) (A) (A) (A) (A) (A) (A) (A) (A)
                 (A) (A) (A) (A) (A) (A) (A) (A) (A) (A) (A) (A)
                 (A) (A) (A) (A) (A) (A) (A) (A) (A) (A) (A) (A)
                 (A) (A) (A) (A) (A) (A) (A) (A) (A) (A) (A) (A)
                 (A) (A) (A) (A) (A) (A) (A) (A) (A) (A) (A) (A)
                 (A) (A) (A) (A) (A) (A) (A) (A) (A) (A) (A) (A)
                 (A) (A) (A)
 The electronic state is 1-A.
 Alpha  occ. eigenvalues --  -20.59493 -20.58486 -20.58325 -20.56431 -20.52380
 Alpha  occ. eigenvalues --  -15.62162 -15.56210 -11.36857 -11.35766 -11.32277
 Alpha  occ. eigenvalues --  -11.32066 -11.29805 -11.29516 -11.29412 -11.29348
 Alpha  occ. eigenvalues --  -11.29062 -11.28792 -11.26453 -11.25646 -11.25549
 Alpha  occ. eigenvalues --  -11.25304 -11.25001 -11.23804 -11.23776 -11.23384
 Alpha  occ. eigenvalues --  -11.22397 -11.22384  -1.40046  -1.39235  -1.38192
 Alpha  occ. eigenvalues --   -1.36712  -1.36332  -1.28938  -1.19318  -1.16603
 Alpha  occ. eigenvalues --   -1.13465  -1.07080  -1.05940  -1.03318  -1.01092
 Alpha  occ. eigenvalues --   -1.00093  -0.95452  -0.94379  -0.94210  -0.93803
 Alpha  occ. eigenvalues --   -0.88924  -0.86674  -0.84932  -0.81143  -0.80400
 Alpha  occ. eigenvalues --   -0.79393  -0.76733  -0.73225  -0.72401  -0.71358
 Alpha  occ. eigenvalues --   -0.70037  -0.68620  -0.68114  -0.66085  -0.64836
 Alpha  occ. eigenvalues --   -0.64655  -0.64199  -0.63588  -0.62971  -0.61496
 Alpha  occ. eigenvalues --   -0.60744  -0.60588  -0.60173  -0.59615  -0.59242
 Alpha  occ. eigenvalues --   -0.58251  -0.58034  -0.57621  -0.57151  -0.56918
 Alpha  occ. eigenvalues --   -0.55531  -0.55107  -0.53925  -0.53286  -0.53070
 Alpha  occ. eigenvalues --   -0.52141  -0.51321  -0.50440  -0.49887  -0.49495
 Alpha  occ. eigenvalues --   -0.48980  -0.48684  -0.47715  -0.45560  -0.45065
 Alpha  occ. eigenvalues --   -0.43979  -0.43492  -0.41142  -0.38984  -0.34087
 Alpha  occ. eigenvalues --   -0.33309  -0.31789  -0.29154
 Alpha virt. eigenvalues --    0.07669   0.11562   0.13059   0.15801   0.20712
 Alpha virt. eigenvalues --    0.21529   0.21869   0.22895   0.23754   0.24846
 Alpha virt. eigenvalues --    0.24928   0.26045   0.26549   0.27157   0.28155
 Alpha virt. eigenvalues --    0.28560   0.29143   0.30092   0.30221   0.30342
 Alpha virt. eigenvalues --    0.30635   0.31331   0.31447   0.31721   0.32013
 Alpha virt. eigenvalues --    0.32678   0.33600   0.34348   0.35366   0.35815
 Alpha virt. eigenvalues --    0.37441   0.38442   0.38888   0.40291   0.41542
 Alpha virt. eigenvalues --    0.42163   0.42532   0.42948   0.43442   0.44202
 Alpha virt. eigenvalues --    0.45531   0.46016   0.46885   0.48347   0.50137
 Alpha virt. eigenvalues --    0.51770   0.53009   0.54217   0.54844   0.57207
 Alpha virt. eigenvalues --    0.59620   0.61379   0.61838   0.63138   0.66758
 Alpha virt. eigenvalues --    0.68145   0.70252   0.71200   0.71954   0.72416
 Alpha virt. eigenvalues --    0.72906   0.73043   0.73544   0.74720   0.75041
 Alpha virt. eigenvalues --    0.75102   0.75362   0.75762   0.76229   0.77330
 Alpha virt. eigenvalues --    0.77702   0.78410   0.78600   0.79052   0.79403
 Alpha virt. eigenvalues --    0.80007   0.80807   0.81316   0.82209   0.82648
 Alpha virt. eigenvalues --    0.84051   0.84317   0.84698   0.85210   0.86683
 Alpha virt. eigenvalues --    0.87590   0.88303   0.89005   0.89975   0.90278
 Alpha virt. eigenvalues --    0.91901   0.92983   0.93337   0.93877   0.94909
 Alpha virt. eigenvalues --    0.96033   0.97185   0.97799   0.98536   0.98924
 Alpha virt. eigenvalues --    1.00436   1.01410   1.01763   1.02547   1.03965
 Alpha virt. eigenvalues --    1.05186   1.05546   1.06857   1.07122   1.08028
 Alpha virt. eigenvalues --    1.08750   1.08974   1.10101   1.10499   1.11434
 Alpha virt. eigenvalues --    1.11564   1.12310   1.12566   1.12968   1.13263
 Alpha virt. eigenvalues --    1.13701   1.14249   1.14565   1.14624   1.15841
 Alpha virt. eigenvalues --    1.16460   1.16870   1.17895   1.18094   1.18471
 Alpha virt. eigenvalues --    1.19265   1.19974   1.20378   1.21089   1.21630
 Alpha virt. eigenvalues --    1.23016   1.23580   1.24192   1.25335   1.26129
 Alpha virt. eigenvalues --    1.26778   1.27266   1.28496   1.29204   1.29947
 Alpha virt. eigenvalues --    1.31095   1.31298   1.32402   1.33524   1.34100
 Alpha virt. eigenvalues --    1.34955   1.36112   1.36556   1.38003   1.39290
 Alpha virt. eigenvalues --    1.41529   1.42696   1.43162   1.43548   1.45842
 Alpha virt. eigenvalues --    1.46283   1.47539   1.48651   1.50035   1.50890
 Alpha virt. eigenvalues --    1.52190   1.53459   1.53769   1.55052   1.56050
 Alpha virt. eigenvalues --    1.58718   1.61291   1.61595   1.62228   1.62464
 Alpha virt. eigenvalues --    1.63795   1.64778   1.64981   1.65337   1.65723
 Alpha virt. eigenvalues --    1.66475   1.67536   1.68654   1.69940   1.71765
 Alpha virt. eigenvalues --    1.72405   1.73311   1.74716   1.75201   1.75991
 Alpha virt. eigenvalues --    1.77385   1.79462   1.79567   1.82375   1.82646
 Alpha virt. eigenvalues --    1.84980   1.87354   1.89143   1.91029   1.94176
 Alpha virt. eigenvalues --    1.95989   1.98519   2.00850   2.02204   2.02322
 Alpha virt. eigenvalues --    2.02693   2.03155   2.05572   2.06017   2.06814
 Alpha virt. eigenvalues --    2.07482   2.08710   2.10158   2.10307   2.11250
 Alpha virt. eigenvalues --    2.11987   2.12986   2.14309   2.15191   2.16454
 Alpha virt. eigenvalues --    2.17017   2.17368   2.18066   2.18452   2.19259
 Alpha virt. eigenvalues --    2.20786   2.22537   2.22680   2.23683   2.24306
 Alpha virt. eigenvalues --    2.25326   2.25975   2.26729   2.26975   2.28030
 Alpha virt. eigenvalues --    2.29931   2.30432   2.34005   2.34165   2.35860
 Alpha virt. eigenvalues --    2.36446   2.38038   2.39070   2.39981   2.40935
 Alpha virt. eigenvalues --    2.43358   2.43531   2.43957   2.45250   2.45906
 Alpha virt. eigenvalues --    2.46643   2.47014   2.49111   2.51503   2.52222
 Alpha virt. eigenvalues --    2.52901   2.53923   2.54456   2.55542   2.57060
 Alpha virt. eigenvalues --    2.57671   2.58789   2.59504   2.59960   2.60866
 Alpha virt. eigenvalues --    2.62039   2.63320   2.64577   2.65346   2.66173
 Alpha virt. eigenvalues --    2.66875   2.67200   2.67796   2.69211   2.70064
 Alpha virt. eigenvalues --    2.70686   2.71036   2.72167   2.73502   2.74097
 Alpha virt. eigenvalues --    2.77850   2.79474   2.79972   2.81307   2.83307
 Alpha virt. eigenvalues --    2.85497   2.88284   2.88747   2.89780   2.90743
 Alpha virt. eigenvalues --    2.93542   2.94673   2.95888   2.99733   3.02603
 Alpha virt. eigenvalues --    3.03100   3.03852   3.04349   3.05014   3.05808
 Alpha virt. eigenvalues --    3.07349   3.08787   3.11700   3.13627   3.14950
 Alpha virt. eigenvalues --    3.16038   3.17249   3.21940   3.23094   3.23813
 Alpha virt. eigenvalues --    3.27110   3.28760   3.33689   3.34600   3.37234
 Alpha virt. eigenvalues --    3.39824   3.42086   3.45080   3.49250   3.54729
 Alpha virt. eigenvalues --    3.61855   3.75281   3.84060   3.85704   4.18061
 Alpha virt. eigenvalues --    4.40509   4.45729   4.47467   4.49811   4.50909
 Alpha virt. eigenvalues --    4.53233   4.54574   4.56321   4.56830   4.60111
 Alpha virt. eigenvalues --    4.64755   4.65953   4.67793   4.68860   4.72628
 Alpha virt. eigenvalues --    4.75463   4.79260   4.83840   4.85870   4.88609
 Alpha virt. eigenvalues --    4.90770   4.97837   5.02820   5.19958   5.22236
 Alpha virt. eigenvalues --    5.26391
          Condensed to atoms (all electrons):
              1          2          3          4          5          6
     1  O    8.421349   0.196722   0.246595  -0.036520   0.000633   0.000000
     2  C    0.196722   4.878474  -0.044840   0.001379  -0.000011   0.000000
     3  C    0.246595  -0.044840   4.376665   0.532319  -0.020103  -0.000011
     4  C   -0.036520   0.001379   0.532319   5.198225   0.520607  -0.000048
     5  C    0.000633  -0.000011  -0.020103   0.520607   4.331889   0.002112
     6  N    0.000000   0.000000  -0.000011  -0.000048   0.002112   7.540422
     7  C   -0.000003   0.000000  -0.000211  -0.009395  -0.034408   0.000002
     8  O   -0.000008   0.000000   0.003278  -0.054423   0.277362  -0.000090
     9  C    0.000263  -0.000007  -0.019025  -0.077377   0.499729  -0.110490
    10  O    0.000000   0.000000   0.000000   0.000000   0.000000   0.000000
    11  N   -0.000025  -0.000017   0.001312   0.000156   0.004587  -0.085683
    12  C    0.000000   0.000000  -0.000665   0.005460  -0.038577   0.246840
    13  C    0.000000   0.000000   0.000020  -0.000032   0.000509   0.251657
    14  O    0.000000   0.000000   0.000000   0.000000   0.000000   0.000000
    15  O    0.000000   0.000000  -0.000014   0.000320   0.003184  -0.093248
    16  C    0.000000   0.000000   0.000000   0.000000   0.000015  -0.061683
    17  C    0.000000   0.000000   0.000000   0.000000   0.000000  -0.015302
    18  C    0.000000   0.000000   0.000000   0.000000   0.000000   0.000171
    19  C    0.000000   0.000000   0.000000   0.000000   0.000000   0.000002
    20  C    0.000000   0.000000   0.000000   0.000000   0.000000   0.000002
    21  C    0.000000   0.000000   0.000000   0.000000   0.000000   0.000000
    22  C    0.000000   0.000000   0.000000   0.000000   0.000000   0.000000
    23  C    0.000000   0.000000   0.000000   0.000000   0.000000  -0.000075
    24  C    0.000000   0.000000   0.000000   0.000000   0.000000   0.000000
    25  C    0.000000   0.000000   0.000000   0.000000   0.000000   0.004717
    26  C    0.003644  -0.000571  -0.025055  -0.026389  -0.017266  -0.013594
    27  C   -0.046005  -0.013579   0.513703  -0.064771  -0.026863   0.000200
    28  H   -0.004760  -0.000346  -0.031678   0.001848   0.000067   0.000023
    29  H    0.000000   0.000000   0.000000   0.000000   0.000000   0.000130
    30  H    0.000000   0.000000   0.000000   0.000000   0.000000   0.000000
    31  H    0.000000   0.000000   0.000000   0.000000   0.000000   0.000000
    32  H    0.000000   0.000000   0.000000   0.000000   0.000000   0.000000
    33  H    0.000000   0.000000   0.000000   0.000000   0.000000   0.000000
    34  H    0.000000   0.000000   0.000000   0.000000   0.000000   0.000000
    35  H    0.000000   0.000000   0.000000   0.000000   0.000000   0.000000
    36  H    0.000000   0.000000   0.000000   0.000000   0.000000   0.000000
    37  H    0.000000   0.000000   0.000000   0.000000   0.000000   0.000000
    38  H    0.000000   0.000000   0.000000   0.000000   0.000000   0.000000
    39  H    0.000000   0.000000   0.000000   0.000000   0.000000  -0.000006
    40  H    0.000000   0.000000   0.000000   0.000000   0.000000   0.002667
    41  H    0.000000   0.000000   0.000000   0.000000   0.000000   0.000000
    42  H    0.000000   0.000000  -0.000238   0.001465  -0.000832   0.000000
    43  H    0.000000   0.000000  -0.000177  -0.001047  -0.002933   0.000000
    44  H    0.000000   0.000000   0.000013   0.000404   0.001624   0.000000
    45  H    0.000000   0.000000   0.000000   0.000000   0.000004   0.289499
    46  H    0.000965  -0.000072  -0.022584   0.374958  -0.029422   0.000001
    47  H   -0.037137   0.390117  -0.001740   0.000007   0.000002   0.000000
    48  H   -0.036613   0.390376  -0.002977  -0.000115  -0.000003   0.000000
    49  H   -0.025396   0.395200   0.002069   0.000009   0.000000   0.000000
              7          8          9         10         11         12
     1  O   -0.000003  -0.000008   0.000263   0.000000  -0.000025   0.000000
     2  C    0.000000   0.000000  -0.000007   0.000000  -0.000017   0.000000
     3  C   -0.000211   0.003278  -0.019025   0.000000   0.001312  -0.000665
     4  C   -0.009395  -0.054423  -0.077377   0.000000   0.000156   0.005460
     5  C   -0.034408   0.277362   0.499729   0.000000   0.004587  -0.038577
     6  N    0.000002  -0.000090  -0.110490   0.000000  -0.085683   0.246840
     7  C    4.861933   0.197496   0.002468   0.000000   0.000001  -0.000075
     8  O    0.197496   8.402158  -0.047946   0.000000  -0.000017  -0.000932
     9  C    0.002468  -0.047946   5.458433   0.000000  -0.062140   0.326616
    10  O    0.000000   0.000000   0.000000   8.475444   0.000000   0.000000
    11  N    0.000001  -0.000017  -0.062140   0.000000   7.058514  -0.010943
    12  C   -0.000075  -0.000932   0.326616   0.000000  -0.010943   4.025655
    13  C    0.000000   0.000002  -0.007239  -0.000001   0.561123  -0.027817
    14  O    0.000000   0.000000   0.000000   0.004103   0.000000   0.000000
    15  O    0.000265  -0.013830  -0.083991   0.000000   0.000041   0.625964
    16  C    0.000000   0.000000   0.000117  -0.000355  -0.075761   0.000164
    17  C    0.000000   0.000000  -0.000128   0.004523   0.001973   0.000315
    18  C    0.000000   0.000000  -0.000001  -0.082515  -0.000065  -0.000006
    19  C    0.000000   0.000000   0.000000   0.001353   0.000000   0.000000
    20  C    0.000000   0.000000   0.000000   0.284403   0.000019   0.000000
    21  C    0.000000   0.000000   0.000000   0.180077   0.000000   0.000000
    22  C    0.000000   0.000000   0.000000  -0.057541   0.000000   0.000000
    23  C    0.000000   0.000000   0.000000  -0.073477   0.000307   0.000001
    24  C    0.000000   0.000000   0.000000   0.002689  -0.000009   0.000000
    25  C    0.000000   0.000000   0.000050   0.003507  -0.002523  -0.000017
    26  C   -0.000018   0.001776   0.450146   0.000000   0.359247  -0.032668
    27  C   -0.000004   0.000156  -0.071254   0.000000  -0.059212   0.003420
    28  H    0.000000   0.000001   0.003347   0.000000   0.003183  -0.000035
    29  H    0.000000   0.000000   0.000022  -0.000028   0.008145  -0.000002
    30  H    0.000000   0.000000   0.000000   0.001458   0.000000   0.000000
    31  H    0.000000   0.000000   0.000000  -0.000533   0.000000   0.000000
    32  H    0.000000   0.000000   0.000000   0.000162  -0.000003   0.000000
    33  H    0.000000   0.000000   0.000000  -0.002870   0.000000   0.000000
    34  H    0.000000   0.000000   0.000000   0.003240   0.000000   0.000000
    35  H    0.000000   0.000000   0.000000  -0.036183   0.000000   0.000000
    36  H    0.000000   0.000000   0.000000  -0.030840   0.000000   0.000000
    37  H    0.000000   0.000000   0.000000  -0.000056   0.000000   0.000000
    38  H    0.000000   0.000000   0.000000   0.001080   0.000000   0.000000
    39  H    0.000000   0.000000   0.000000   0.000276   0.000000   0.000000
    40  H    0.000000   0.000000  -0.000064  -0.000053  -0.000075   0.000155
    41  H    0.000000   0.000000   0.000000  -0.000247   0.000000   0.000000
    42  H    0.383829  -0.032879  -0.000144   0.000000   0.000000   0.000012
    43  H    0.383918  -0.032676  -0.000579   0.000000   0.000000   0.000014
    44  H    0.394789  -0.022470   0.000128   0.000000   0.000000  -0.000030
    45  H    0.000000   0.000003   0.006482   0.000000   0.002362  -0.005683
    46  H    0.000200  -0.005301   0.002018   0.000000   0.000002  -0.000019
    47  H    0.000000   0.000000  -0.000013   0.000000  -0.000001   0.000000
    48  H    0.000000   0.000000  -0.000004   0.000000  -0.000003   0.000000
    49  H    0.000000   0.000000   0.000000   0.000000   0.000000   0.000000
             13         14         15         16         17         18
     1  O    0.000000   0.000000   0.000000   0.000000   0.000000   0.000000
     2  C    0.000000   0.000000   0.000000   0.000000   0.000000   0.000000
     3  C    0.000020   0.000000  -0.000014   0.000000   0.000000   0.000000
     4  C   -0.000032   0.000000   0.000320   0.000000   0.000000   0.000000
     5  C    0.000509   0.000000   0.003184   0.000015   0.000000   0.000000
     6  N    0.251657   0.000000  -0.093248  -0.061683  -0.015302   0.000171
     7  C    0.000000   0.000000   0.000265   0.000000   0.000000   0.000000
     8  O    0.000002   0.000000  -0.013830   0.000000   0.000000   0.000000
     9  C   -0.007239   0.000000  -0.083991   0.000117  -0.000128  -0.000001
    10  O   -0.000001   0.004103   0.000000  -0.000355   0.004523  -0.082515
    11  N    0.561123   0.000000   0.000041  -0.075761   0.001973  -0.000065
    12  C   -0.027817   0.000000   0.625964   0.000164   0.000315  -0.000006
    13  C    4.253799   0.000000   0.001127   0.411555  -0.046020   0.002534
    14  O    0.000000   8.402607   0.000000   0.000000   0.000000  -0.000016
    15  O    0.001127   0.000000   8.155273  -0.000042  -0.000018   0.000000
    16  C    0.411555   0.000000  -0.000042   4.884903   0.537765  -0.040635
    17  C   -0.046020   0.000000  -0.000018   0.537765   5.030772   0.527600
    18  C    0.002534  -0.000016   0.000000  -0.040635   0.527600   4.947498
    19  C   -0.000131   0.000052   0.000000   0.003514  -0.043632   0.307093
    20  C    0.000365   0.000111   0.000000  -0.028888  -0.030780   0.570893
    21  C    0.000001  -0.071940   0.000000   0.000134  -0.000231  -0.007611
    22  C    0.000000   0.210465   0.000000  -0.000002   0.000008   0.001909
    23  C    0.002273  -0.000002   0.000000  -0.042418  -0.039009  -0.067946
    24  C   -0.000090  -0.000001   0.000000   0.002752   0.000236   0.003266
    25  C   -0.027470   0.000000   0.000000   0.525875  -0.047933  -0.035018
    26  C   -0.062307   0.000000   0.002498   0.004706  -0.000020   0.000002
    27  C    0.001996   0.000000  -0.000011  -0.000078   0.000003   0.000000
    28  H    0.000106   0.000000   0.000000  -0.000023   0.000000   0.000000
    29  H   -0.002590   0.000000   0.000000  -0.019097   0.002255   0.000099
    30  H    0.000001   0.000000   0.000000  -0.000066   0.000002  -0.000073
    31  H    0.000002  -0.000015   0.000000  -0.000068   0.000031  -0.000177
    32  H   -0.000007   0.000000   0.000000   0.000359  -0.000028   0.000059
    33  H    0.000000  -0.035462   0.000000   0.000000   0.000001  -0.000652
    34  H    0.000000  -0.037722   0.000000   0.000000  -0.000001  -0.000122
    35  H    0.000000   0.002684   0.000000  -0.000015  -0.000545   0.002220
    36  H    0.000000   0.001322   0.000000  -0.000002   0.000015  -0.000491
    37  H    0.000002  -0.000020   0.000000  -0.000078   0.000869  -0.038728
    38  H    0.000002   0.000000   0.000000  -0.000076   0.000585  -0.036312
    39  H   -0.000013   0.000000   0.000000   0.000524  -0.003915  -0.048078
    40  H   -0.004618   0.000000  -0.000101  -0.036310   0.364247  -0.012926
    41  H    0.000000   0.261266   0.000000   0.000000   0.000000   0.000003
    42  H    0.000000   0.000000  -0.000017   0.000000   0.000000   0.000000
    43  H    0.000000   0.000000  -0.000012   0.000000   0.000000   0.000000
    44  H    0.000000   0.000000   0.000041   0.000000   0.000000   0.000000
    45  H   -0.014597   0.000000   0.009324  -0.004174   0.003318  -0.000040
    46  H    0.000000   0.000000   0.000003   0.000000   0.000000   0.000000
    47  H   -0.000001   0.000000   0.000000   0.000000   0.000000   0.000000
    48  H    0.000000   0.000000   0.000000   0.000000   0.000000   0.000000
    49  H    0.000000   0.000000   0.000000   0.000000   0.000000   0.000000
             19         20         21         22         23         24
     1  O    0.000000   0.000000   0.000000   0.000000   0.000000   0.000000
     2  C    0.000000   0.000000   0.000000   0.000000   0.000000   0.000000
     3  C    0.000000   0.000000   0.000000   0.000000   0.000000   0.000000
     4  C    0.000000   0.000000   0.000000   0.000000   0.000000   0.000000
     5  C    0.000000   0.000000   0.000000   0.000000   0.000000   0.000000
     6  N    0.000002   0.000002   0.000000   0.000000  -0.000075   0.000000
     7  C    0.000000   0.000000   0.000000   0.000000   0.000000   0.000000
     8  O    0.000000   0.000000   0.000000   0.000000   0.000000   0.000000
     9  C    0.000000   0.000000   0.000000   0.000000   0.000000   0.000000
    10  O    0.001353   0.284403   0.180077  -0.057541  -0.073477   0.002689
    11  N    0.000000   0.000019   0.000000   0.000000   0.000307  -0.000009
    12  C    0.000000   0.000000   0.000000   0.000000   0.000001   0.000000
    13  C   -0.000131   0.000365   0.000001   0.000000   0.002273  -0.000090
    14  O    0.000052   0.000111  -0.071940   0.210465  -0.000002  -0.000001
    15  O    0.000000   0.000000   0.000000   0.000000   0.000000   0.000000
    16  C    0.003514  -0.028888   0.000134  -0.000002  -0.042418   0.002752
    17  C   -0.043632  -0.030780  -0.000231   0.000008  -0.039009   0.000236
    18  C    0.307093   0.570893  -0.007611   0.001909  -0.067946   0.003266
    19  C    5.094904  -0.049412   0.000242  -0.003916   0.003697  -0.000100
[...]
 **** Fit       0.000571
 **** Fit      -0.001824
 **** Fit       0.004059
 **** Fit       0.004573
 **** Fit       0.004894
 **** Fit       0.004074
 **** Fit       0.004057
 **** Fit       0.003756
 **** Fit       0.003127
 **** Fit       0.002099
 **** Fit       0.000582
 **** Fit      -0.001511
 **** Fit      -0.004185
 **** Fit       0.002498
 **** Fit       0.003309
 **** Fit       0.003825
 **** Fit       0.003008
 **** Fit       0.003006
 **** Fit       0.002627
 **** Fit       0.001824
 **** Fit       0.000545
 **** Fit      -0.001243
 **** Fit      -0.003479
 **** Fit      -0.005928
 **** Fit      -0.008190
 **** Fit      -0.009982
 **** Fit      -0.000837
 **** Fit       0.000790
 **** Fit       0.001925
 **** Fit       0.002650
 **** Fit       0.001796
 **** Fit       0.001775
 **** Fit       0.001217
 **** Fit       0.000097
 **** Fit      -0.001564
 **** Fit      -0.003617
 **** Fit      -0.005757
 **** Fit      -0.007695
 **** Fit      -0.009423
 **** Fit      -0.010974
 **** Fit      -0.003545
 **** Fit      -0.001340
 **** Fit       0.000263
 **** Fit       0.001296
 **** Fit       0.000399
 **** Fit       0.000265
 **** Fit      -0.000752
 **** Fit      -0.002504
 **** Fit      -0.004595
 **** Fit      -0.006536
 **** Fit      -0.007927
 **** Fit      -0.008124
 **** Fit      -0.006689
 **** Fit      -0.004291
 **** Fit      -0.001985
 **** Fit      -0.000363
 **** Fit      -0.001223
 **** Fit      -0.001807
 **** Fit      -0.003764
 **** Fit      -0.005330
 **** Fit      -0.004727
 **** Fit      -0.002550
 **** Fit      -0.003116
 **** Fit      -0.001804
 **** Fit      -0.000099
 **** Fit      -0.000828
 **** Fit      -0.002693
 **** Fit      -0.003797
 **** Fit      -0.003022
 **** Fit      -0.001149
 **** Fit       0.001356
 **** Fit       0.001106
 **** Fit      -0.000034
 **** Fit      -0.001902
 **** Fit      -0.003941
 **** Fit      -0.005433
 **** Fit      -0.006113
 **** Fit      -0.005862
 **** Fit      -0.004539
 **** Fit      -0.002559
 **** Fit      -0.000634
 **** Fit       0.000745
 **** Fit       0.002600
 **** Fit       0.002520
 **** Fit       0.001885
 **** Fit       0.000641
 **** Fit      -0.001219
 **** Fit      -0.003512
 **** Fit      -0.005745
 **** Fit      -0.007350
 **** Fit      -0.008252
 **** Fit      -0.008777
 **** Fit      -0.008868
 **** Fit      -0.008101
 **** Fit      -0.006415
 **** Fit      -0.004232
 **** Fit      -0.002050
 **** Fit      -0.000182
 **** Fit       0.001237
 **** Fit       0.002167
 **** Fit       0.003670
 **** Fit       0.003658
 **** Fit       0.003255
 **** Fit       0.002403
 **** Fit       0.001006
 **** Fit      -0.001033
 **** Fit      -0.003695
 **** Fit      -0.012124
 **** Fit      -0.004298
 **** Fit      -0.001936
 **** Fit       0.000008
 **** Fit       0.001514
 **** Fit       0.002607
 **** Fit       0.003320
 **** Fit       0.004607
 **** Fit       0.004622
 **** Fit       0.004347
 **** Fit       0.003739
 **** Fit       0.002709
 **** Fit       0.001110
 **** Fit      -0.001262
 **** Fit      -0.000007
 **** Fit       0.001632
 **** Fit       0.002860
 **** Fit       0.003740
 **** Fit       0.004315
 **** Fit       0.005452
 **** Fit       0.005474
 **** Fit       0.005290
 **** Fit       0.004881
 **** Fit       0.004198
 **** Fit       0.003142
 **** Fit       0.003184
 **** Fit       0.004120
 **** Fit       0.004789
 **** Fit       0.005227
 **** Fit       0.006252
 **** Fit       0.006256
 **** Fit       0.006107
 **** Fit       0.005804
 **** Fit       0.005335
 **** Fit       0.004660
 **** Fit       0.005228
 **** Fit       0.005752
 **** Fit       0.006088
 **** Fit       0.007059
 **** Fit       0.007026
 **** Fit       0.006894
 **** Fit       0.006683
 **** Fit       0.006423
 **** Fit       0.006163
 **** Fit       0.006977
 **** Fit       0.007835
 **** Fit       0.007695
 **** Fit       0.007543
 **** Fit       0.007453
 **** Fit      -0.004860
 **** Fit      -0.011686
 **** Fit      -0.007731
 **** Fit      -0.004524
 **** Fit      -0.001947
 **** Fit       0.000157
 **** Fit      -0.017237
 **** Fit      -0.012106
 **** Fit      -0.007999
 **** Fit      -0.004738
 **** Fit      -0.002148
 **** Fit      -0.000061
 **** Fit       0.001678
 **** Fit       0.003229
 **** Fit      -0.024085
 **** Fit      -0.017464
 **** Fit      -0.012252
 **** Fit      -0.008155
 **** Fit      -0.004924
 **** Fit      -0.002360
 **** Fit      -0.000299
 **** Fit       0.001395
 **** Fit       0.002852
 **** Fit       0.004197
 **** Fit      -0.029655
 **** Fit      -0.021409
 **** Fit      -0.015124
 **** Fit      -0.010296
 **** Fit      -0.006548
 **** Fit      -0.003609
 **** Fit      -0.001281
 **** Fit       0.000594
 **** Fit       0.002143
 **** Fit       0.003488
 **** Fit       0.004746
 **** Fit      -0.035231
 **** Fit      -0.025461
 **** Fit      -0.018176
 **** Fit      -0.012661
 **** Fit      -0.008419
 **** Fit      -0.005114
 **** Fit      -0.002508
 **** Fit      -0.000429
 **** Fit       0.001258
 **** Fit       0.002668
 **** Fit       0.003905
 **** Fit       0.005077
 **** Fit      -0.032587
 **** Fit      -0.023508
 **** Fit      -0.016741
 **** Fit      -0.011604
 **** Fit      -0.007638
 **** Fit      -0.004536
 **** Fit      -0.002082
 **** Fit      -0.000117
 **** Fit       0.001483
 **** Fit       0.002824
 **** Fit       0.004004
 **** Fit       0.005122
 **** Fit      -0.036338
 **** Fit      -0.026200
 **** Fit      -0.018687
 **** Fit      -0.013028
 **** Fit      -0.008694
 **** Fit      -0.005330
 **** Fit      -0.002689
 **** Fit      -0.000592
 **** Fit       0.001098
 **** Fit       0.002495
 **** Fit       0.003704
 **** Fit       0.004829
 **** Fit       0.005976
 **** Fit      -0.031428
 **** Fit      -0.022626
 **** Fit      -0.015986
 **** Fit      -0.010928
 **** Fit      -0.007034
 **** Fit      -0.004005
 **** Fit      -0.001628
 **** Fit       0.000260
 **** Fit       0.001792
 **** Fit       0.003085
 **** Fit       0.004253
 **** Fit       0.005411
 **** Fit      -0.026150
 **** Fit      -0.018943
 **** Fit      -0.013337
 **** Fit      -0.008983
 **** Fit      -0.005589
 **** Fit      -0.002931
 **** Fit      -0.000834
 **** Fit       0.000845
 **** Fit       0.002233
 **** Fit       0.003450
 **** Fit       0.004615
 **** Fit      -0.026139
 **** Fit      -0.019184
 **** Fit      -0.013553
 **** Fit      -0.009112
 **** Fit      -0.005646
 **** Fit      -0.002949
 **** Fit      -0.000841
 **** Fit       0.000836
 **** Fit       0.002232
 **** Fit       0.003493
 **** Fit      -0.018757
 **** Fit      -0.013484
 **** Fit      -0.009146
 **** Fit      -0.005709
 **** Fit      -0.003034
 **** Fit      -0.000956
 **** Fit       0.000693
 **** Fit      -0.014441
 **** Fit      -0.010062
 **** Fit      -0.006421
 **** Fit      -0.003575
 **** Fit      -0.001406
 **** Fit      -0.007892
 **** Fit      -0.004560
 **** Fit       0.000041
 **** Fit       0.006322
 **** Fit      -0.001389
 **** Fit       0.008487
 **** Fit       0.001413
 **** Fit      -0.007327
 **** Fit       0.009821
 **** Fit       0.003763
 **** Fit      -0.003851
 **** Fit       0.011615
 **** Fit       0.006990
 **** Fit       0.000996
 **** Fit      -0.006872
 **** Fit       0.010964
 **** Fit       0.007224
 **** Fit       0.001988
 **** Fit      -0.005108
 **** Fit       0.010476
 **** Fit       0.008121
 **** Fit       0.004165
 **** Fit      -0.001543
 **** Fit      -0.009450
 **** Fit       0.008852
 **** Fit       0.007920
 **** Fit       0.005331
 **** Fit       0.001084
 **** Fit      -0.005022
 **** Fit       0.006650
 **** Fit       0.006520
 **** Fit       0.004622
 **** Fit       0.000951
 **** Fit      -0.004607
 **** Fit      -0.012280
 **** Fit       0.004351
 **** Fit       0.004843
 **** Fit       0.003649
 **** Fit       0.000660
 **** Fit      -0.004160
 **** Fit      -0.010772
 **** Fit       0.002711
 **** Fit       0.002773
 **** Fit       0.001069
 **** Fit      -0.002543
 **** Fit      -0.007824
 **** Fit       0.000866
 **** Fit      -0.000720
 **** Fit      -0.001419
 **** Fit      -0.004119
 **** Fit      -0.007548
 **** Fit       0.000968
 **** Fit      -0.001739
 **** Fit      -0.005011
 **** Fit      -0.009157
 **** Fit       0.002873
 **** Fit       0.000166
 **** Fit      -0.002992
 **** Fit      -0.006999
 **** Fit       0.004315
 **** Fit       0.001724
 **** Fit      -0.001219
 **** Fit      -0.004874
 **** Fit       0.005341
 **** Fit       0.002776
 **** Fit      -0.000114
 **** Fit      -0.003677
 **** Fit      -0.008423
 **** Fit       0.006010
 **** Fit       0.003531
 **** Fit       0.000765
 **** Fit      -0.002586
 **** Fit      -0.006960
 **** Fit       0.006370
 **** Fit       0.003930
 **** Fit       0.001238
 **** Fit      -0.001969
 **** Fit      -0.006074
 **** Fit       0.006450
 **** Fit       0.003919
 **** Fit       0.001162
 **** Fit      -0.002092
 **** Fit      -0.006225
 **** Fit       0.006247
 **** Fit       0.003553
 **** Fit       0.000680
 **** Fit      -0.002672
 **** Fit      -0.006884
 **** Fit       0.002879
 **** Fit      -0.000050
 **** Fit      -0.003391
 **** Fit      -0.007469
 **** Fit       0.001648
 **** Fit      -0.001482
 **** Fit      -0.005004
 **** Fit      -0.009172
 **** Fit      -0.000037
 **** Fit      -0.003269
 **** Fit      -0.006821
 **** Fit      -0.002382
 **** Fit       0.010249
 **** Fit       0.009570
 **** Fit       0.009003
 **** Fit       0.011347
 **** Fit       0.010870
 **** Fit       0.010328
 **** Fit       0.009712
 **** Fit       0.009024
 **** Fit       0.008284
 **** Fit       0.010624
 **** Fit       0.010305
 **** Fit       0.009891
 **** Fit       0.009369
 **** Fit       0.008724
 **** Fit       0.007940
 **** Fit       0.006998
 **** Fit       0.009797
 **** Fit       0.009740
 **** Fit       0.009563
 **** Fit       0.009254
 **** Fit       0.008798
 **** Fit       0.008175
 **** Fit       0.007349
 **** Fit       0.006264
 **** Fit       0.004816
 **** Fit       0.008320
 **** Fit       0.008638
 **** Fit       0.008779
 **** Fit       0.008754
 **** Fit       0.008560
 **** Fit       0.008186
 **** Fit       0.007607
 **** Fit       0.006782
 **** Fit       0.005638
 **** Fit       0.004054
 **** Fit       0.001825
 **** Fit       0.006220
 **** Fit       0.007034
 **** Fit       0.007543
 **** Fit       0.007799
 **** Fit       0.007820
 **** Fit       0.007604
 **** Fit       0.007130
 **** Fit       0.006357
 **** Fit       0.005212
 **** Fit       0.003573
 **** Fit       0.001270
 **** Fit       0.004720
 **** Fit       0.005771
 **** Fit       0.006444
 **** Fit       0.006786
 **** Fit       0.006815
 **** Fit       0.006521
 **** Fit       0.005871
 **** Fit       0.004803
 **** Fit       0.003225
 **** Fit       0.001033
 **** Fit      -0.001788
 **** Fit      -0.000371
 **** Fit       0.001702
 **** Fit       0.003410
 **** Fit       0.004648
 **** Fit       0.005414
 **** Fit       0.005725
 **** Fit       0.005580
 **** Fit       0.004948
 **** Fit       0.003774
 **** Fit       0.002007
 **** Fit      -0.000300
 **** Fit      -0.002813
 **** Fit      -0.004847
 **** Fit      -0.005774
 **** Fit      -0.005695
 **** Fit      -0.005146
 **** Fit      -0.004152
 **** Fit      -0.002485
 **** Fit       0.000334
 **** Fit       0.002228
 **** Fit       0.003656
 **** Fit       0.004389
 **** Fit       0.004347
 **** Fit       0.003486
 **** Fit       0.001826
 **** Fit      -0.000332
 **** Fit      -0.002208
 **** Fit      -0.003007
 **** Fit      -0.002693
 **** Fit      -0.001500
 **** Fit       0.000889
 **** Fit       0.002570
 **** Fit       0.002931
 **** Fit       0.001607
 **** Fit      -0.000238
 **** Fit      -0.000557
 **** Fit       0.001305
 **** Fit       0.002977
 **** Fit       0.002646
 **** Fit       0.004074
 **** Fit       0.004322
 **** Fit       0.003169
 **** Fit       0.001684
 **** Fit       0.001426
 **** Fit       0.002183
 **** Fit       0.003831
 **** Fit       0.005060
 **** Fit       0.005635
 **** Fit       0.005497
 **** Fit       0.004659
 **** Fit       0.003223
 **** Fit       0.001516
 **** Fit       0.000098
 **** Fit      -0.000563
 **** Fit      -0.000374
 **** Fit       0.000610
 **** Fit       0.001600
 **** Fit       0.003429
 **** Fit       0.004949
 **** Fit       0.006021
 **** Fit       0.006627
 **** Fit       0.006793
 **** Fit       0.006532
 **** Fit       0.005839
 **** Fit       0.004703
 **** Fit       0.003153
 **** Fit       0.001323
 **** Fit      -0.000495
 **** Fit      -0.001915
 **** Fit      -0.002674
 **** Fit      -0.002813
 **** Fit      -0.002488
 **** Fit      -0.001654
 **** Fit      -0.000225
 **** Fit       0.007170
 **** Fit       0.007671
 **** Fit       0.007841
 **** Fit       0.007710
 **** Fit       0.007276
 **** Fit       0.006519
 **** Fit       0.005401
 **** Fit       0.003892
 **** Fit       0.002005
 **** Fit      -0.000150
 **** Fit      -0.002316
 **** Fit      -0.004108
 **** Fit      -0.005176
 **** Fit      -0.005474
 **** Fit      -0.005339
 **** Fit      -0.005073
 **** Fit       0.008823
 **** Fit       0.008871
 **** Fit       0.008697
 **** Fit       0.008298
 **** Fit       0.007656
 **** Fit       0.006730
 **** Fit       0.005466
 **** Fit       0.003803
 **** Fit       0.001700
 **** Fit      -0.000812
 **** Fit      -0.003563
 **** Fit       0.009935
 **** Fit       0.009678
 **** Fit       0.009269
 **** Fit       0.008688
 **** Fit       0.007906
 **** Fit       0.006873
 **** Fit       0.005524
 **** Fit       0.003773
 **** Fit       0.001533
 **** Fit      -0.001259
 **** Fit       0.010446
 **** Fit       0.009886
 **** Fit       0.009188
 **** Fit       0.008319
 **** Fit       0.007224
 **** Fit       0.005828
 **** Fit       0.004025
 **** Fit       0.001674
 **** Fit       0.011163
 **** Fit       0.010472
 **** Fit       0.009683
 **** Fit       0.008765
 **** Fit       0.007675
 **** Fit       0.006348
 **** Fit       0.004700
 **** Fit       0.010786
 **** Fit       0.009891
 **** Fit       0.008916
 **** Fit       0.007840
 **** Fit       0.004857
 **** Fit       0.006372
 **** Fit       0.002336
 **** Fit       0.004285
 **** Fit       0.005840
 **** Fit       0.007050
 **** Fit       0.008013
 **** Fit       0.001883
 **** Fit       0.003929
 **** Fit       0.005550
 **** Fit       0.006821
 **** Fit       0.007822
 **** Fit       0.008640
 **** Fit       0.009381
 **** Fit      -0.000652
 **** Fit       0.001531
 **** Fit       0.003683
 **** Fit       0.005377
 **** Fit       0.006708
 **** Fit       0.007756
 **** Fit       0.008595
 **** Fit       0.009302
 **** Fit       0.009968
 **** Fit      -0.001210
 **** Fit       0.001235
 **** Fit       0.003426
 **** Fit       0.005153
 **** Fit       0.006520
 **** Fit       0.007606
 **** Fit       0.008474
 **** Fit       0.009186
 **** Fit       0.009805
 **** Fit       0.010407
 **** Fit       0.011076
 **** Fit      -0.001585
 **** Fit       0.000958
 **** Fit       0.003251
 **** Fit       0.005045
 **** Fit       0.006463
 **** Fit       0.007588
 **** Fit       0.008486
 **** Fit       0.009214
 **** Fit       0.009833
 **** Fit       0.010409
 **** Fit       0.011019
 **** Fit      -0.002035
 **** Fit       0.000676
 **** Fit       0.003009
 **** Fit       0.004832
 **** Fit       0.006276
 **** Fit       0.007427
 **** Fit       0.008348
 **** Fit       0.009095
 **** Fit       0.009721
 **** Fit       0.010283
 **** Fit       0.010848
 **** Fit       0.011492
 **** Fit      -0.002380
 **** Fit       0.000378
 **** Fit       0.002748
 **** Fit       0.004598
 **** Fit       0.006064
 **** Fit       0.007234
 **** Fit       0.008173
 **** Fit       0.008935
 **** Fit       0.009572
 **** Fit       0.010138
 **** Fit       0.010694
 **** Fit       0.011313
 **** Fit      -0.002738
 **** Fit       0.000066
 **** Fit       0.002530
 **** Fit       0.004436
 **** Fit       0.005935
 **** Fit       0.007126
 **** Fit       0.008077
 **** Fit       0.008850
 **** Fit       0.009500
 **** Fit       0.010089
 **** Fit       0.010687
 **** Fit       0.011374
 **** Fit      -0.003209
 **** Fit      -0.000238
 **** Fit       0.002317
 **** Fit       0.004275
 **** Fit       0.005802
 **** Fit       0.007005
 **** Fit       0.007964
 **** Fit       0.008746
 **** Fit       0.009418
 **** Fit       0.010055
 **** Fit       0.010744
 **** Fit      -0.003675
 **** Fit      -0.000497
 **** Fit       0.002074
 **** Fit       0.004039
 **** Fit       0.005566
 **** Fit       0.006767
 **** Fit       0.007728
 **** Fit       0.008523
 **** Fit       0.009232
 **** Fit       0.009942
 **** Fit      -0.003958
 **** Fit      -0.000651
 **** Fit       0.001994
 **** Fit       0.003995
 **** Fit       0.005531
 **** Fit       0.006732
 **** Fit       0.007701
 **** Fit       0.008542
 **** Fit       0.009371
 **** Fit      -0.000627
 **** Fit       0.001993
 **** Fit       0.003973
 **** Fit       0.005491
 **** Fit       0.006686
 **** Fit       0.007693
 **** Fit       0.004192
 -----------------------------------------------------------------
 Leave Link  602 at Wed Jun  8 15:27:02 2016, MaxMem=    6291456 cpu:      11.4

 Test job not archived.
 1\1\GINC-COMPUTE-2-8\FOpt\RHF\6-31G(d)\C20H22N2O5\DAVE\08-Jun-2016\0\\
 #HF/6-31G* SCF=tight Test Pop=MK iop(6/33=2) iop(6/42=6) opt\\remark l
 ine goes here\\0,1\O,2.9835441838,9.9020829905,-8.2561795908\C,3.67842
 79407,11.017992918,-8.745431783\C,1.7253999262,9.6737771228,-8.6536220
 716\C,1.1364962247,8.530095551,-8.0940071714\C,-0.1525206822,8.1873832
 97,-8.4228588419\N,-2.7779934814,9.6133075418,-10.6349988813\C,-0.1058
 79345,6.2718298644,-7.0269077142\O,-0.7677455638,7.1182775383,-7.92520
 39069\C,-0.8936866184,8.9903347042,-9.3311189571\O,-4.7789252504,14.07
 05598068,-14.7204933321\N,-0.9191956083,10.978596858,-10.7550580603\C,
 -2.2607641606,8.6755001497,-9.7442025376\C,-2.1154552514,10.7052975682
 ,-11.0987563749\O,-4.3919072763,16.2012864275,-16.5926740461\O,-2.9490
 917427,7.7479682466,-9.4318414208\C,-2.8395915888,11.5938608682,-12.04
 47291734\C,-4.2246518771,11.7120223923,-12.0256023782\C,-4.8851008136,
 12.5502588057,-12.9083085234\C,-6.3912020111,12.6662593928,-12.8942246
 102\C,-4.1263788878,13.2757932372,-13.8246629548\C,-4.8708161821,15.44
 1245974,-14.4055404974\C,-5.3948377175,16.1756068765,-15.6158128475\C,
 -2.7393785146,13.1638900461,-13.881672468\C,-1.9276106311,13.921722674
 7,-14.9072950693\C,-2.1131814039,12.3237136583,-12.9732945203\C,-0.280
 4829273,10.1269145634,-9.8723818049\C,1.0332682819,10.4707048693,-9.53
 31051115\H,1.448089566,11.352190525,-9.975522199\H,-1.0449038554,12.22
 1874508,-12.9895669167\H,-2.5206075452,14.1690797708,-15.7761188148\H,
 -1.543451142,14.8506181051,-14.4941256659\H,-1.0749651151,13.331326383
 6,-15.2229935152\H,-6.2866993812,15.6711402233,-15.976514901\H,-5.6712
 546922,17.185466259,-15.3176206778\H,-5.5470499813,15.5851709098,-13.5
 678437902\H,-3.8997456715,15.8366251977,-14.1328335174\H,-6.7151325298
 ,13.643157178,-12.5490092623\H,-6.8003222187,12.5211863648,-13.8868324
 484\H,-6.8259630393,11.9252903343,-12.2339528568\H,-4.8086633991,11.17
 40154236,-11.3003225743\H,-4.7524212234,16.4940175085,-17.417306342\H,
 0.7756993324,5.8299628656,-7.4776752532\H,0.1758050029,6.7990598881,-6
 .1222561672\H,-0.8123408983,5.4936770481,-6.7832495612\H,-3.6798207592
 ,9.3827486425,-10.9888947812\H,1.7256814979,7.95169336,-7.4132656737\H
 ,3.7851598568,10.9723194454,-9.8230340475\H,3.181990422,11.9412035721,
 -8.469958922\H,4.6551767518,10.9858925434,-8.2871174631\\Version=AM64L
 -G03RevD.02\State=1-A\HF=-1253.3883326\RMSD=4.443e-09\RMSF=3.464e-06\T
 hermal=0.\Dipole=-0.1306983,1.8385962,-0.6796737\PG=C01 [X(C20H22N2O5)
 ]\\@


  THE LARGE PRINT GIVETH,
  AND THE SMALL PRINT TAKETH AWAY.

                     -- TOM WAITES
 Job cpu time:  0 days  6 hours 11 minutes 13.3 seconds.
 File lengths (MBytes):  RWF=    137 Int=      0 D2E=      0 Chk=     20 Scr=      1
 Normal termination of Gaussian 03 at Wed Jun  8 15:27:02 2016.
