 Entering Gaussian System, Link 0=g03
 Initial command:
 /share/apps//g03/l1.exe /state/partition1/mmpbsa.Yf9689/Gau-9694.inp -scrdir=/state/partition1/mmpbsa.Yf9689/
 Entering Link 1 = /share/apps//g03/l1.exe PID=      9695.
  
 Copyright (c) 1988,1990,1992,1993,1995,1998,2003,2004, Gaussian, Inc.
                  All Rights Reserved.
  
 This is the Gaussian(R) 03 program.  It is based on the
 the Gaussian(R) 98 system (copyright 1998, Gaussian, Inc.),
 the Gaussian(R) 94 system (copyright 1995, Gaussian, Inc.),
 the Gaussian 92(TM) system (copyright 1992, Gaussian, Inc.),
 the Gaussian 90(TM) system (copyright 1990, Gaussian, Inc.),
 the Gaussian 88(TM) system (copyright 1988, Gaussian, Inc.),
 the Gaussian 86(TM) system (copyright 1986, Carnegie Mellon
 University), and the Gaussian 82(TM) system (copyright 1983,
 Carnegie Mellon University). Gaussian is a federally registered
 trademark of Gaussian, Inc.
  
 This software contains proprietary and confidential information,
 including trade secrets, belonging to Gaussian, Inc.
  
 This software is provided under written license and may be
 used, copied, transmitted, or stored only in accord with that
 written license.
  
 The following legend is applicable only to US Government
 contracts under FAR:
  
                    RESTRICTED RIGHTS LEGEND
  
 Use, reproduction and disclosure by the US Government is
 subject to restrictions as set forth in subparagraphs (a)
 and (c) of the Commercial Computer Software - Restricted
 Rights clause in FAR 52.227-19.
  
 Gaussian, Inc.
 340 Quinnipiac St., Bldg. 40, Wallingford CT 06492
  
  
 ---------------------------------------------------------------
 Warning -- This program may not be used in any manner that
 competes with the business of Gaussian, Inc. or will provide
 assistance to any competitor of Gaussian, Inc.  The licensee
 of this program is prohibited from giving any competitor of
 Gaussian, Inc. access to this program.  By using this program,
 the user acknowledges that Gaussian, Inc. is engaged in the
 business of creating and licensing software in the field of
 computational chemistry and represents and warrants to the
 licensee that it is not a competitor of Gaussian, Inc. and that
 it will not use this program in any manner prohibited above.
 ---------------------------------------------------------------
  

 Cite this work as:
 Gaussian 03, Revision D.02,
 M. J. Frisch, G. W. Trucks, H. B. Schlegel, G. E. Scuseria, 
 M. A. Robb, J. R. Cheeseman, J. A. Montgomery, Jr., T. Vreven, 
 K. N. Kudin, J. C. Burant, J. M. Millam, S. S. Iyengar, J. Tomasi, 
 V. Barone, B. Mennucci, M. Cossi, G. Scalmani, N. Rega, 
 G. A. Petersson, H. Nakatsuji, M. Hada, M. Ehara, K. Toyota, 
 R. Fukuda, J. Hasegawa, M. Ishida, T. Nakajima, Y. Honda, O. Kitao, 
 H. Nakai, M. Klene, X. Li, J. E. Knox, H. P. Hratchian, J. B. Cross, 
 V. Bakken, C. Adamo, J. Jaramillo, R. Gomperts, R. E. Stratmann, 
 O. Yazyev, A. J. Austin, R. Cammi, C. Pomelli, J. W. Ochterski, 
 P. Y. Ayala, K. Morokuma, G. A. Voth, P. Salvador, J. J. Dannenberg, 
 V. G. Zakrzewski, S. Dapprich, A. D. Daniels, M. C. Strain, 
 O. Farkas, D. K. Malick, A. D. Rabuck, K. Raghavachari, 
 J. B. Foresman, J. V. Ortiz, Q. Cui, A. G. Baboul, S. Clifford, 
 J. Cioslowski, B. B. Stefanov, G. Liu, A. Liashenko, P. Piskorz, 
 I. Komaromi, R. L. Martin, D. J. Fox, T. Keith, M. A. Al-Laham, 
 C. Y. Peng, A. Nanayakkara, M. Challacombe, P. M. W. Gill, 
 B. Johnson, W. Chen, M. W. Wong, C. Gonzalez, and J. A. Pople, 
 Gaussian, Inc., Wallingford CT, 2004.
 
 ******************************************
 Gaussian 03:  AM64L-G03RevD.02  1-Mar-2006
                23-Sep-2015 
 ******************************************
 %chk=molecule
 ------------------------------------------------------------
 #HF/6-31G* SCF=tight Test Pop=MK iop(6/33=2) iop(6/42=6) opt
 ------------------------------------------------------------
 1/18=20,38=1/1,3;
 2/9=110,17=6,18=5,40=1/2;
 3/5=1,6=6,7=1,11=9,16=1,25=1,30=1/1,2,3;
 4//1;
 5/5=2,32=2,38=5/2;
 6/7=2,8=2,9=2,10=2,15=8,20=1,28=1,33=2,42=6/1,2;
 7//1,2,3,16;
 1/18=20/3(3);
 2/9=110/2;
 6/7=2,8=2,9=2,10=2,15=8,19=2,20=1,28=1,33=2,42=6/1,2;
 99//99;
 2/9=110/2;
 3/5=1,6=6,7=1,11=9,16=1,25=1,30=1/1,2,3;
 4/5=5,16=3/1;
 5/5=2,32=2,38=5/2;
 7//1,2,3,16;
 1/18=20/3(-5);
 2/9=110/2;
 6/7=2,8=2,9=2,10=2,15=8,19=2,20=1,28=1,33=2,42=6/1,2;
 99/9=1/99;
 ---------------------
 remark line goes here
 ---------------------
 Symbolic Z-matrix:
 Charge = -1 Multiplicity = 1
 C                     15.632    7.156     8.882 
 C                     14.913    6.239     9.882 
 C                     13.966    5.212     9.215 
 C                     14.734    4.265     8.25 
 C                     14.074    2.887     8.117 
 N                     14.762    2.08      7.112 
 C                     14.157    0.99      6.467 
 C                     12.847    0.546     6.767 
 C                     12.294   -0.557     6.087 
 C                     13.041   -1.227     5.101 
 C                     14.345   -0.792     4.797 
 C                     14.898    0.31      5.477 
 C                     13.998    2.295     9.521 
 C                     14.396    0.97      9.815 
 C                     14.373    0.47      11.136 
 C                     13.962    1.339     12.17 
 C                     13.569    2.662     11.893 
 C                     13.557    3.142     10.563 
 N                     13.171    4.487     10.243 
 C                     12.01     5.053     10.688 
 C                     10.974    4.213     11.443 
 O                     11.719    6.236     10.477 
 C                     14.786   -0.918     11.431 
 C                     15.869   -1.516     10.749 
 C                     16.263   -2.84      11.03 
 C                     15.582   -3.603     12.004 
 C                     14.497   -3.01      12.688 
 C                     14.107   -1.686     12.404 
 C                     16.001   -5.016     12.306 
 O                     16.962   -5.53      11.696 
 H                     13.267    5.759     8.579 
 H                     13.052    3.054     7.774 
 H                     16.246    7.891     9.403 
 H                     16.291    6.594     8.219 
 H                     14.919    7.702     8.263 
 H                     14.349    6.869     10.571 
 H                     15.651    5.717     10.493 
 H                     14.825    4.742     7.273 
 H                     15.753    4.125     8.615 
 H                     15.705    2.351     6.852 
 H                     12.246    1.029     7.524 
 H                     11.293   -0.89      6.326 
 H                     12.616   -2.074     4.579 
 H                     14.924   -1.304     4.041 
 H                     15.902    0.627     5.229 
 H                     14.728    0.321     9.019 
 H                     13.96     0.999     13.196 
 H                     13.291    3.304     12.716 
 H                     10.912    3.199     11.049 
 H                     11.209    4.173     12.505 
 H                     9.985     4.659     11.341 
 H                     16.416   -0.956     10.004 
 H                     17.098   -3.27      10.493 
 H                     13.957   -3.573     13.436 
 H                     13.268   -1.263     12.939 
 O                     15.39    -5.681     13.168 
 

 GradGradGradGradGradGradGradGradGradGradGradGradGradGradGradGradGradGrad
 Berny optimization.
 Initialization pass.
                           ----------------------------
                           !    Initial Parameters    !
                           ! (Angstroms and Degrees)  !
 --------------------------                            --------------------------
 ! Name  Definition              Value          Derivative Info.                !
 --------------------------------------------------------------------------------
 ! R1    R(1,2)                  1.5355         estimate D2E/DX2                !
 ! R2    R(1,33)                 1.0903         estimate D2E/DX2                !
 ! R3    R(1,34)                 1.0907         estimate D2E/DX2                !
 ! R4    R(1,35)                 1.0907         estimate D2E/DX2                !
 ! R5    R(2,3)                  1.548          estimate D2E/DX2                !
 ! R6    R(2,36)                 1.0907         estimate D2E/DX2                !
 ! R7    R(2,37)                 1.0911         estimate D2E/DX2                !
 ! R8    R(3,4)                  1.5549         estimate D2E/DX2                !
 ! R9    R(3,19)                 1.4881         estimate D2E/DX2                !
 ! R10   R(3,31)                 1.0919         estimate D2E/DX2                !
 ! R11   R(4,5)                  1.5337         estimate D2E/DX2                !
 ! R12   R(4,38)                 1.091          estimate D2E/DX2                !
 ! R13   R(4,39)                 1.0914         estimate D2E/DX2                !
 ! R14   R(5,6)                  1.461          estimate D2E/DX2                !
 ! R15   R(5,13)                 1.5256         estimate D2E/DX2                !
 ! R16   R(5,32)                 1.0909         estimate D2E/DX2                !
 ! R17   R(6,7)                  1.4036         estimate D2E/DX2                !
 ! R18   R(6,40)                 1.015          estimate D2E/DX2                !
 ! R19   R(7,8)                  1.4154         estimate D2E/DX2                !
 ! R20   R(7,12)                 1.4112         estimate D2E/DX2                !
 ! R21   R(8,9)                  1.4088         estimate D2E/DX2                !
 ! R22   R(8,41)                 1.0805         estimate D2E/DX2                !
 ! R23   R(9,10)                 1.4068         estimate D2E/DX2                !
 ! R24   R(9,42)                 1.0817         estimate D2E/DX2                !
 ! R25   R(10,11)                1.4079         estimate D2E/DX2                !
 ! R26   R(10,43)                1.0819         estimate D2E/DX2                !
 ! R27   R(11,12)                1.4081         estimate D2E/DX2                !
 ! R28   R(11,44)                1.0812         estimate D2E/DX2                !
 ! R29   R(12,45)                1.0817         estimate D2E/DX2                !
 ! R30   R(13,14)                1.4144         estimate D2E/DX2                !
 ! R31   R(13,18)                1.4134         estimate D2E/DX2                !
 ! R32   R(14,15)                1.4126         estimate D2E/DX2                !
 ! R33   R(14,46)                1.0794         estimate D2E/DX2                !
 ! R34   R(15,16)                1.4118         estimate D2E/DX2                !
 ! R35   R(15,23)                1.4779         estimate D2E/DX2                !
 ! R36   R(16,17)                1.4077         estimate D2E/DX2                !
 ! R37   R(16,47)                1.0809         estimate D2E/DX2                !
 ! R38   R(17,18)                1.414          estimate D2E/DX2                !
 ! R39   R(17,48)                1.0802         estimate D2E/DX2                !
 ! R40   R(18,19)                1.4354         estimate D2E/DX2                !
 ! R41   R(19,20)                1.3661         estimate D2E/DX2                !
 ! R42   R(20,21)                1.5326         estimate D2E/DX2                !
 ! R43   R(20,22)                1.2364         estimate D2E/DX2                !
 ! R44   R(21,49)                1.0896         estimate D2E/DX2                !
 ! R45   R(21,50)                1.0884         estimate D2E/DX2                !
 ! R46   R(21,51)                1.0897         estimate D2E/DX2                !
 ! R47   R(23,24)                1.4127         estimate D2E/DX2                !
 ! R48   R(23,28)                1.4134         estimate D2E/DX2                !
 ! R49   R(24,25)                1.4097         estimate D2E/DX2                !
 ! R50   R(24,52)                1.0807         estimate D2E/DX2                !
 ! R51   R(25,26)                1.4123         estimate D2E/DX2                !
 ! R52   R(25,53)                1.0819         estimate D2E/DX2                !
 ! R53   R(26,27)                1.4131         estimate D2E/DX2                !
 ! R54   R(26,29)                1.5044         estimate D2E/DX2                !
 ! R55   R(27,28)                1.4092         estimate D2E/DX2                !
 ! R56   R(27,54)                1.0808         estimate D2E/DX2                !
 ! R57   R(28,55)                1.0812         estimate D2E/DX2                !
 ! R58   R(29,30)                1.2489         estimate D2E/DX2                !
 ! R59   R(29,56)                1.2484         estimate D2E/DX2                !
 ! A1    A(2,1,33)             110.7988         estimate D2E/DX2                !
 ! A2    A(2,1,34)             111.7809         estimate D2E/DX2                !
 ! A3    A(2,1,35)             111.2507         estimate D2E/DX2                !
 ! A4    A(33,1,34)            107.3119         estimate D2E/DX2                !
 ! A5    A(33,1,35)            107.57           estimate D2E/DX2                !
 ! A6    A(34,1,35)            107.9339         estimate D2E/DX2                !
 ! A7    A(1,2,3)              113.7052         estimate D2E/DX2                !
 ! A8    A(1,2,36)             107.9728         estimate D2E/DX2                !
 ! A9    A(1,2,37)             109.4927         estimate D2E/DX2                !
 ! A10   A(3,2,36)             109.8181         estimate D2E/DX2                !
 ! A11   A(3,2,37)             109.7348         estimate D2E/DX2                !
 ! A12   A(36,2,37)            105.8038         estimate D2E/DX2                !
 ! A13   A(2,3,4)              111.6719         estimate D2E/DX2                !
 ! A14   A(2,3,19)             110.6332         estimate D2E/DX2                !
 ! A15   A(2,3,31)             108.0731         estimate D2E/DX2                !
 ! A16   A(4,3,19)             113.3202         estimate D2E/DX2                !
 ! A17   A(4,3,31)             105.0578         estimate D2E/DX2                !
 ! A18   A(19,3,31)            107.7243         estimate D2E/DX2                !
 ! A19   A(3,4,5)              112.8596         estimate D2E/DX2                !
 ! A20   A(3,4,38)             109.3093         estimate D2E/DX2                !
 ! A21   A(3,4,39)             109.3728         estimate D2E/DX2                !
 ! A22   A(5,4,38)             110.5522         estimate D2E/DX2                !
 ! A23   A(5,4,39)             108.393          estimate D2E/DX2                !
 ! A24   A(38,4,39)            106.122          estimate D2E/DX2                !
 ! A25   A(4,5,6)              110.6885         estimate D2E/DX2                !
 ! A26   A(4,5,13)             106.875          estimate D2E/DX2                !
 ! A27   A(4,5,32)             107.0307         estimate D2E/DX2                !
 ! A28   A(6,5,13)             116.2421         estimate D2E/DX2                !
 ! A29   A(6,5,32)             108.0255         estimate D2E/DX2                !
 ! A30   A(13,5,32)            107.5836         estimate D2E/DX2                !
 ! A31   A(5,6,7)              122.8238         estimate D2E/DX2                !
 ! A32   A(5,6,40)             117.7885         estimate D2E/DX2                !
 ! A33   A(7,6,40)             119.3448         estimate D2E/DX2                !
 ! A34   A(6,7,8)              123.035          estimate D2E/DX2                !
 ! A35   A(6,7,12)             118.0491         estimate D2E/DX2                !
 ! A36   A(8,7,12)             118.9158         estimate D2E/DX2                !
 ! A37   A(7,8,9)              120.4376         estimate D2E/DX2                !
 ! A38   A(7,8,41)             121.5389         estimate D2E/DX2                !
 ! A39   A(9,8,41)             118.0207         estimate D2E/DX2                !
 ! A40   A(8,9,10)             120.1811         estimate D2E/DX2                !
 ! A41   A(8,9,42)             119.8431         estimate D2E/DX2                !
 ! A42   A(10,9,42)            119.9757         estimate D2E/DX2                !
 ! A43   A(9,10,11)            119.7362         estimate D2E/DX2                !
 ! A44   A(9,10,43)            120.1606         estimate D2E/DX2                !
 ! A45   A(11,10,43)           120.1032         estimate D2E/DX2                !
 ! A46   A(10,11,12)           120.0866         estimate D2E/DX2                !
 ! A47   A(10,11,44)           120.0459         estimate D2E/DX2                !
 ! A48   A(12,11,44)           119.8674         estimate D2E/DX2                !
 ! A49   A(7,12,11)            120.6427         estimate D2E/DX2                !
 ! A50   A(7,12,45)            120.464          estimate D2E/DX2                !
 ! A51   A(11,12,45)           118.8933         estimate D2E/DX2                !
 ! A52   A(5,13,14)            122.7382         estimate D2E/DX2                !
 ! A53   A(5,13,18)            117.4823         estimate D2E/DX2                !
 ! A54   A(14,13,18)           119.7328         estimate D2E/DX2                !
 ! A55   A(13,14,15)           121.4247         estimate D2E/DX2                !
 ! A56   A(13,14,46)           119.7714         estimate D2E/DX2                !
 ! A57   A(15,14,46)           118.8038         estimate D2E/DX2                !
 ! A58   A(14,15,16)           118.1482         estimate D2E/DX2                !
 ! A59   A(14,15,23)           120.966          estimate D2E/DX2                !
 ! A60   A(16,15,23)           120.8801         estimate D2E/DX2                !
 ! A61   A(15,16,17)           121.0412         estimate D2E/DX2                !
 ! A62   A(15,16,47)           120.1409         estimate D2E/DX2                !
 ! A63   A(17,16,47)           118.8107         estimate D2E/DX2                !
 ! A64   A(16,17,18)           120.431          estimate D2E/DX2                !
 ! A65   A(16,17,48)           118.7198         estimate D2E/DX2                !
 ! A66   A(18,17,48)           120.844          estimate D2E/DX2                !
 ! A67   A(13,18,17)           119.1671         estimate D2E/DX2                !
 ! A68   A(13,18,19)           118.7556         estimate D2E/DX2                !
 ! A69   A(17,18,19)           122.0084         estimate D2E/DX2                !
 ! A70   A(3,19,18)            117.8302         estimate D2E/DX2                !
 ! A71   A(3,19,20)            118.5024         estimate D2E/DX2                !
 ! A72   A(18,19,20)           122.9652         estimate D2E/DX2                !
 ! A73   A(19,20,21)           120.5213         estimate D2E/DX2                !
 ! A74   A(19,20,22)           122.7413         estimate D2E/DX2                !
 ! A75   A(21,20,22)           116.704          estimate D2E/DX2                !
 ! A76   A(20,21,49)           111.7389         estimate D2E/DX2                !
 ! A77   A(20,21,50)           110.7846         estimate D2E/DX2                !
 ! A78   A(20,21,51)           110.0639         estimate D2E/DX2                !
 ! A79   A(49,21,50)           109.3234         estimate D2E/DX2                !
 ! A80   A(49,21,51)           107.1811         estimate D2E/DX2                !
 ! A81   A(50,21,51)           107.5976         estimate D2E/DX2                !
 ! A82   A(15,23,24)           121.027          estimate D2E/DX2                !
 ! A83   A(15,23,28)           120.8973         estimate D2E/DX2                !
 ! A84   A(24,23,28)           118.0757         estimate D2E/DX2                !
 ! A85   A(23,24,25)           121.0393         estimate D2E/DX2                !
 ! A86   A(23,24,52)           120.0999         estimate D2E/DX2                !
 ! A87   A(25,24,52)           118.8589         estimate D2E/DX2                !
 ! A88   A(24,25,26)           120.6719         estimate D2E/DX2                !
 ! A89   A(24,25,53)           119.3452         estimate D2E/DX2                !
 ! A90   A(26,25,53)           119.9827         estimate D2E/DX2                !
 ! A91   A(25,26,27)           118.5128         estimate D2E/DX2                !
 ! A92   A(25,26,29)           120.7679         estimate D2E/DX2                !
 ! A93   A(27,26,29)           120.7193         estimate D2E/DX2                !
 ! A94   A(26,27,28)           120.6137         estimate D2E/DX2                !
 ! A95   A(26,27,54)           120.0033         estimate D2E/DX2                !
 ! A96   A(28,27,54)           119.383          estimate D2E/DX2                !
 ! A97   A(23,28,27)           121.0865         estimate D2E/DX2                !
 ! A98   A(23,28,55)           120.0555         estimate D2E/DX2                !
 ! A99   A(27,28,55)           118.856          estimate D2E/DX2                !
 ! A100  A(26,29,30)           120.1852         estimate D2E/DX2                !
 ! A101  A(26,29,56)           120.1715         estimate D2E/DX2                !
 ! A102  A(30,29,56)           119.6433         estimate D2E/DX2                !
 ! D1    D(33,1,2,3)           177.1543         estimate D2E/DX2                !
 ! D2    D(33,1,2,36)           55.0335         estimate D2E/DX2                !
 ! D3    D(33,1,2,37)          -59.7098         estimate D2E/DX2                !
 ! D4    D(34,1,2,3)           -63.2044         estimate D2E/DX2                !
 ! D5    D(34,1,2,36)          174.6747         estimate D2E/DX2                !
 ! D6    D(34,1,2,37)           59.9315         estimate D2E/DX2                !
 ! D7    D(35,1,2,3)            57.5379         estimate D2E/DX2                !
 ! D8    D(35,1,2,36)          -64.5829         estimate D2E/DX2                !
 ! D9    D(35,1,2,37)         -179.3261         estimate D2E/DX2                !
 ! D10   D(1,2,3,4)             60.408          estimate D2E/DX2                !
 ! D11   D(1,2,3,19)          -172.3772         estimate D2E/DX2                !
 ! D12   D(1,2,3,31)           -54.6629         estimate D2E/DX2                !
 ! D13   D(36,2,3,4)          -178.4976         estimate D2E/DX2                !
 ! D14   D(36,2,3,19)          -51.2827         estimate D2E/DX2                !
 ! D15   D(36,2,3,31)           66.4315         estimate D2E/DX2                !
 ! D16   D(37,2,3,4)           -62.5954         estimate D2E/DX2                !
 ! D17   D(37,2,3,19)           64.6194         estimate D2E/DX2                !
 ! D18   D(37,2,3,31)         -177.6664         estimate D2E/DX2                !
 ! D19   D(2,3,4,5)            151.5961         estimate D2E/DX2                !
 ! D20   D(2,3,4,38)           -84.9403         estimate D2E/DX2                !
 ! D21   D(2,3,4,39)            30.8511         estimate D2E/DX2                !
 ! D22   D(19,3,4,5)            25.8479         estimate D2E/DX2                !
 ! D23   D(19,3,4,38)          149.3115         estimate D2E/DX2                !
 ! D24   D(19,3,4,39)          -94.8972         estimate D2E/DX2                !
 ! D25   D(31,3,4,5)           -91.493          estimate D2E/DX2                !
 ! D26   D(31,3,4,38)           31.9706         estimate D2E/DX2                !
 ! D27   D(31,3,4,39)          147.762          estimate D2E/DX2                !
 ! D28   D(2,3,19,18)         -103.7393         estimate D2E/DX2                !
 ! D29   D(2,3,19,20)           85.5731         estimate D2E/DX2                !
 ! D30   D(4,3,19,18)           22.5616         estimate D2E/DX2                !
 ! D31   D(4,3,19,20)         -148.1259         estimate D2E/DX2                !
 ! D32   D(31,3,19,18)         138.333          estimate D2E/DX2                !
 ! D33   D(31,3,19,20)         -32.3546         estimate D2E/DX2                !
 ! D34   D(3,4,5,6)            174.898          estimate D2E/DX2                !
 ! D35   D(3,4,5,13)           -57.6233         estimate D2E/DX2                !
 ! D36   D(3,4,5,32)            57.4065         estimate D2E/DX2                !
 ! D37   D(38,4,5,6)            52.1253         estimate D2E/DX2                !
 ! D38   D(38,4,5,13)          179.604          estimate D2E/DX2                !
 ! D39   D(38,4,5,32)          -65.3662         estimate D2E/DX2                !
 ! D40   D(39,4,5,6)           -63.7998         estimate D2E/DX2                !
 ! D41   D(39,4,5,13)           63.679          estimate D2E/DX2                !
 ! D42   D(39,4,5,32)          178.7087         estimate D2E/DX2                !
 ! D43   D(4,5,6,7)           -158.5243         estimate D2E/DX2                !
 ! D44   D(4,5,6,40)            19.0761         estimate D2E/DX2                !
 ! D45   D(13,5,6,7)            79.3271         estimate D2E/DX2                !
 ! D46   D(13,5,6,40)         -103.0725         estimate D2E/DX2                !
 ! D47   D(32,5,6,7)           -41.6446         estimate D2E/DX2                !
 ! D48   D(32,5,6,40)          135.9559         estimate D2E/DX2                !
 ! D49   D(4,5,13,14)         -132.6744         estimate D2E/DX2                !
 ! D50   D(4,5,13,18)           44.8317         estimate D2E/DX2                !
 ! D51   D(6,5,13,14)           -8.5391         estimate D2E/DX2                !
 ! D52   D(6,5,13,18)          168.9671         estimate D2E/DX2                !
 ! D53   D(32,5,13,14)         112.6679         estimate D2E/DX2                !
 ! D54   D(32,5,13,18)         -69.8259         estimate D2E/DX2                !
 ! D55   D(5,6,7,8)             -2.3901         estimate D2E/DX2                !
 ! D56   D(5,6,7,12)           177.7429         estimate D2E/DX2                !
 ! D57   D(40,6,7,8)          -179.9548         estimate D2E/DX2                !
 ! D58   D(40,6,7,12)            0.1782         estimate D2E/DX2                !
 ! D59   D(6,7,8,9)           -179.8679         estimate D2E/DX2                !
 ! D60   D(6,7,8,41)            -0.4916         estimate D2E/DX2                !
 ! D61   D(12,7,8,9)            -0.0019         estimate D2E/DX2                !
 ! D62   D(12,7,8,41)          179.3744         estimate D2E/DX2                !
 ! D63   D(6,7,12,11)          179.9037         estimate D2E/DX2                !
 ! D64   D(6,7,12,45)           -0.0228         estimate D2E/DX2                !
 ! D65   D(8,7,12,11)            0.031          estimate D2E/DX2                !
 ! D66   D(8,7,12,45)         -179.8954         estimate D2E/DX2                !
 ! D67   D(7,8,9,10)            -0.0521         estimate D2E/DX2                !
 ! D68   D(7,8,9,42)           179.8194         estimate D2E/DX2                !
 ! D69   D(41,8,9,10)         -179.45           estimate D2E/DX2                !
 ! D70   D(41,8,9,42)            0.4215         estimate D2E/DX2                !
 ! D71   D(8,9,10,11)            0.0769         estimate D2E/DX2                !
 ! D72   D(8,9,10,43)         -179.9996         estimate D2E/DX2                !
 ! D73   D(42,9,10,11)        -179.7944         estimate D2E/DX2                !
 ! D74   D(42,9,10,43)           0.129          estimate D2E/DX2                !
 ! D75   D(9,10,11,12)          -0.0479         estimate D2E/DX2                !
 ! D76   D(9,10,11,44)         179.9238         estimate D2E/DX2                !
 ! D77   D(43,10,11,12)       -179.9714         estimate D2E/DX2                !
 ! D78   D(43,10,11,44)          0.0003         estimate D2E/DX2                !
 ! D79   D(10,11,12,7)          -0.0062         estimate D2E/DX2                !
 ! D80   D(10,11,12,45)        179.9214         estimate D2E/DX2                !
 ! D81   D(44,11,12,7)        -179.978          estimate D2E/DX2                !
 ! D82   D(44,11,12,45)         -0.0504         estimate D2E/DX2                !
 ! D83   D(5,13,14,15)         176.9891         estimate D2E/DX2                !
 ! D84   D(5,13,14,46)          -2.8661         estimate D2E/DX2                !
 ! D85   D(18,13,14,15)         -0.463          estimate D2E/DX2                !
 ! D86   D(18,13,14,46)        179.6818         estimate D2E/DX2                !
 ! D87   D(5,13,18,17)        -175.2564         estimate D2E/DX2                !
 ! D88   D(5,13,18,19)           1.7858         estimate D2E/DX2                !
 ! D89   D(14,13,18,17)          2.3279         estimate D2E/DX2                !
 ! D90   D(14,13,18,19)        179.3701         estimate D2E/DX2                !
 ! D91   D(13,14,15,16)         -1.1088         estimate D2E/DX2                !
 ! D92   D(13,14,15,23)        179.7542         estimate D2E/DX2                !
 ! D93   D(46,14,15,16)        178.7478         estimate D2E/DX2                !
 ! D94   D(46,14,15,23)         -0.3892         estimate D2E/DX2                !
 ! D95   D(14,15,16,17)          0.8091         estimate D2E/DX2                !
 ! D96   D(14,15,16,47)       -178.2043         estimate D2E/DX2                !
 ! D97   D(23,15,16,17)        179.9469         estimate D2E/DX2                !
 ! D98   D(23,15,16,47)          0.9335         estimate D2E/DX2                !
 ! D99   D(14,15,23,24)         37.9626         estimate D2E/DX2                !
 ! D100  D(14,15,23,28)       -141.987          estimate D2E/DX2                !
 ! D101  D(16,15,23,24)       -141.1508         estimate D2E/DX2                !
 ! D102  D(16,15,23,28)         38.8996         estimate D2E/DX2                !
 ! D103  D(15,16,17,18)          1.0648         estimate D2E/DX2                !
 ! D104  D(15,16,17,48)       -178.11           estimate D2E/DX2                !
 ! D105  D(47,16,17,18)       -179.909          estimate D2E/DX2                !
 ! D106  D(47,16,17,48)          0.9162         estimate D2E/DX2                !
 ! D107  D(16,17,18,13)         -2.6362         estimate D2E/DX2                !
 ! D108  D(16,17,18,19)       -179.5781         estimate D2E/DX2                !
 ! D109  D(48,17,18,13)        176.5209         estimate D2E/DX2                !
 ! D110  D(48,17,18,19)         -0.421          estimate D2E/DX2                !
 ! D111  D(13,18,19,3)         -38.2771         estimate D2E/DX2                !
 ! D112  D(13,18,19,20)        131.9646         estimate D2E/DX2                !
 ! D113  D(17,18,19,3)         138.677          estimate D2E/DX2                !
 ! D114  D(17,18,19,20)        -51.0814         estimate D2E/DX2                !
 ! D115  D(3,19,20,21)         163.569          estimate D2E/DX2                !
 ! D116  D(3,19,20,22)         -14.2602         estimate D2E/DX2                !
 ! D117  D(18,19,20,21)         -6.6106         estimate D2E/DX2                !
 ! D118  D(18,19,20,22)        175.5603         estimate D2E/DX2                !
 ! D119  D(19,20,21,49)        -36.5172         estimate D2E/DX2                !
 ! D120  D(19,20,21,50)         85.6489         estimate D2E/DX2                !
 ! D121  D(19,20,21,51)       -155.4765         estimate D2E/DX2                !
 ! D122  D(22,20,21,49)        141.4389         estimate D2E/DX2                !
 ! D123  D(22,20,21,50)        -96.395          estimate D2E/DX2                !
 ! D124  D(22,20,21,51)         22.4796         estimate D2E/DX2                !
 ! D125  D(15,23,24,25)       -179.988          estimate D2E/DX2                !
 ! D126  D(15,23,24,52)          0.5155         estimate D2E/DX2                !
 ! D127  D(28,23,24,25)         -0.037          estimate D2E/DX2                !
 ! D128  D(28,23,24,52)       -179.5335         estimate D2E/DX2                !
 ! D129  D(15,23,28,27)        179.969          estimate D2E/DX2                !
 ! D130  D(15,23,28,55)          0.4915         estimate D2E/DX2                !
 ! D131  D(24,23,28,27)          0.0179         estimate D2E/DX2                !
 ! D132  D(24,23,28,55)       -179.4596         estimate D2E/DX2                !
 ! D133  D(23,24,25,26)         -0.0151         estimate D2E/DX2                !
 ! D134  D(23,24,25,53)       -179.843          estimate D2E/DX2                !
 ! D135  D(52,24,25,26)        179.4875         estimate D2E/DX2                !
 ! D136  D(52,24,25,53)         -0.3404         estimate D2E/DX2                !
 ! D137  D(24,25,26,27)          0.0854         estimate D2E/DX2                !
 ! D138  D(24,25,26,29)       -179.9756         estimate D2E/DX2                !
 ! D139  D(53,25,26,27)        179.9121         estimate D2E/DX2                !
 ! D140  D(53,25,26,29)         -0.1489         estimate D2E/DX2                !
 ! D141  D(25,26,27,28)         -0.1043         estimate D2E/DX2                !
 ! D142  D(25,26,27,54)        179.8206         estimate D2E/DX2                !
 ! D143  D(29,26,27,28)        179.9567         estimate D2E/DX2                !
 ! D144  D(29,26,27,54)         -0.1184         estimate D2E/DX2                !
 ! D145  D(25,26,29,30)          0.107          estimate D2E/DX2                !
 ! D146  D(25,26,29,56)       -179.9064         estimate D2E/DX2                !
 ! D147  D(27,26,29,30)       -179.9553         estimate D2E/DX2                !
 ! D148  D(27,26,29,56)          0.0313         estimate D2E/DX2                !
 ! D149  D(26,27,28,23)          0.0536         estimate D2E/DX2                !
 ! D150  D(26,27,28,55)        179.5372         estimate D2E/DX2                !
 ! D151  D(54,27,28,23)       -179.8718         estimate D2E/DX2                !
 ! D152  D(54,27,28,55)         -0.3882         estimate D2E/DX2                !
 --------------------------------------------------------------------------------
 Trust Radius=3.00D-01 FncErr=1.00D-07 GrdErr=1.00D-07
 Number of steps in this run= 323 maximum allowed number of steps= 336.
 GradGradGradGradGradGradGradGradGradGradGradGradGradGradGradGradGradGrad

 Stoichiometry    C26H25N2O3(1-)
 Framework group  C1[X(C26H25N2O3)]
 Deg. of freedom   162
 Full point group                 C1
 Largest Abelian subgroup         C1      NOp   1
 Largest concise Abelian subgroup C1      NOp   1
                         Standard orientation:                         
 ---------------------------------------------------------------------
 Center     Atomic     Atomic              Coordinates (Angstroms)
 Number     Number      Type              X           Y           Z
 ---------------------------------------------------------------------
    1          6             0        5.717755   -0.623597   -2.675406
    2          6             0        4.758002   -1.391293   -1.754880
    3          6             0        4.139265   -0.519799   -0.635019
    4          6             0        3.312148    0.661177   -1.217283
    5          6             0        2.173407    1.104934   -0.290718
    6          7             0        1.505240    2.289392   -0.824786
    7          6             0        0.750600    3.162462   -0.025775
    8          6             0        0.529240    2.947456    1.355532
    9          6             0       -0.240152    3.858804    2.105398
   10          6             0       -0.795114    4.993385    1.485843
   11          6             0       -0.580094    5.214290    0.112153
   12          6             0        0.188349    4.303181   -0.637506
   13          6             0        1.292229   -0.117936   -0.054980
   14          6             0       -0.117484   -0.077050   -0.162228
   15          6             0       -0.902545   -1.240157    0.000353
   16          6             0       -0.239894   -2.461245    0.251504
   17          6             0        1.162825   -2.518038    0.354749
   18          6             0        1.938316   -1.342212    0.230281
   19          7             0        3.370725   -1.362372    0.320937
   20          6             0        4.042030   -1.956436    1.351829
   21          6             0        3.279538   -2.512026    2.559656
   22          8             0        5.275031   -2.041444    1.386084
   23          6             0       -2.375373   -1.184819   -0.108518
   24          6             0       -3.004269   -0.354839   -1.063106
   25          6             0       -4.409100   -0.301666   -1.167011
   26          6             0       -5.224421   -1.080111   -0.316199
   27          6             0       -4.600331   -1.910882    0.641435
   28          6             0       -3.195612   -1.961051    0.741344
   29          6             0       -6.723881   -1.025447   -0.425577
   30          8             0       -7.264998   -0.288260   -1.276203
   31          1             0        4.954959   -0.049421   -0.082124
   32          1             0        2.625569    1.374440    0.664760
   33          1             0        6.163359   -1.291132   -3.413305
   34          1             0        5.206349    0.169591   -3.222226
   35          1             0        6.531342   -0.169802   -2.108139
   36          1             0        5.308020   -2.223812   -1.314301
   37          1             0        3.963912   -1.842492   -2.351780
   38          1             0        3.979141    1.497441   -1.432044
   39          1             0        2.880968    0.363785   -2.174795
   40          1             0        1.628987    2.498552   -1.810295
   41          1             0        0.931229    2.083265    1.864568
   42          1             0       -0.405681    3.683535    3.159861
   43          1             0       -1.385905    5.693035    2.062015
   44          1             0       -1.005274    6.083945   -0.369346
   45          1             0        0.340227    4.491084   -1.691847
   46          1             0       -0.611889    0.858552   -0.374958
   47          1             0       -0.807065   -3.375817    0.352273
   48          1             0        1.632950   -3.476932    0.516864
   49          1             0        2.424514   -1.888317    2.818881
   50          1             0        2.939257   -3.527903    2.367639
   51          1             0        3.931989   -2.542467    3.431908
   52          1             0       -2.408450    0.246833   -1.734541
   53          1             0       -4.861847    0.341665   -1.909735
   54          1             0       -5.201163   -2.514588    1.306726
   55          1             0       -2.748200   -2.600857    1.489371
   56          8             0       -7.433990   -1.717026    0.333405
 ---------------------------------------------------------------------
 Rotational constants (GHZ):      0.1854416      0.0789314      0.0633158
 Standard basis: 6-31G(d) (6D, 7F)
 There are   515 symmetry adapted basis functions of A   symmetry.
 Integral buffers will be    131072 words long.
 Raffenetti 1 integral format.
 Two-electron integral symmetry is turned on.
   515 basis functions,   968 primitive gaussians,   515 cartesian basis functions
   110 alpha electrons      110 beta electrons
       nuclear repulsion energy      2856.3518868115 Hartrees.
 NAtoms=   56 NActive=   56 NUniq=   56 SFac= 7.50D-01 NAtFMM=   80 NAOKFM=F Big=F
 One-electron integrals computed using PRISM.
 NBasis=   515 RedAO= T  NBF=   515
 NBsUse=   515 1.00D-06 NBFU=   515
 Harris functional with IExCor=  205 diagonalized for initial guess.
 ExpMin= 1.61D-01 ExpMax= 5.48D+03 ExpMxC= 8.25D+02 IAcc=1 IRadAn=         1 AccDes= 1.00D-06
 HarFok:  IExCor= 205 AccDes= 1.00D-06 IRadAn=         1 IDoV=1
 ScaDFX=  1.000000  1.000000  1.000000  1.000000
 Initial guess orbital symmetries:
       Occupied  (A) (A) (A) (A) (A) (A) (A) (A) (A) (A) (A) (A)
                 (A) (A) (A) (A) (A) (A) (A) (A) (A) (A) (A) (A)
                 (A) (A) (A) (A) (A) (A) (A) (A) (A) (A) (A) (A)
                 (A) (A) (A) (A) (A) (A) (A) (A) (A) (A) (A) (A)
                 (A) (A) (A) (A) (A) (A) (A) (A) (A) (A) (A) (A)
                 (A) (A) (A) (A) (A) (A) (A) (A) (A) (A) (A) (A)
                 (A) (A) (A) (A) (A) (A) (A) (A) (A) (A) (A) (A)
                 (A) (A) (A) (A) (A) (A) (A) (A) (A) (A) (A) (A)
                 (A) (A) (A) (A) (A) (A) (A) (A) (A) (A) (A) (A)
                 (A) (A)
       Virtual   (A) (A) (A) (A) (A) (A) (A) (A) (A) (A) (A) (A)
                 (A) (A) (A) (A) (A) (A) (A) (A) (A) (A) (A) (A)
                 (A) (A) (A) (A) (A) (A) (A) (A) (A) (A) (A) (A)
                 (A) (A) (A) (A) (A) (A) (A) (A) (A) (A) (A) (A)
                 (A) (A) (A) (A) (A) (A) (A) (A) (A) (A) (A) (A)
                 (A) (A) (A) (A) (A) (A) (A) (A) (A) (A) (A) (A)
                 (A) (A) (A) (A) (A) (A) (A) (A) (A) (A) (A) (A)
                 (A) (A) (A) (A) (A) (A) (A) (A) (A) (A) (A) (A)
                 (A) (A) (A) (A) (A) (A) (A) (A) (A) (A) (A) (A)
                 (A) (A) (A) (A) (A) (A) (A) (A) (A) (A) (A) (A)
                 (A) (A) (A) (A) (A) (A) (A) (A) (A) (A) (A) (A)
                 (A) (A) (A) (A) (A) (A) (A) (A) (A) (A) (A) (A)
                 (A) (A) (A) (A) (A) (A) (A) (A) (A) (A) (A) (A)
                 (A) (A) (A) (A) (A) (A) (A) (A) (A) (A) (A) (A)
                 (A) (A) (A) (A) (A) (A) (A) (A) (A) (A) (A) (A)
                 (A) (A) (A) (A) (A) (A) (A) (A) (A) (A) (A) (A)
                 (A) (A) (A) (A) (A) (A) (A) (A) (A) (A) (A) (A)
                 (A) (A) (A) (A) (A) (A) (A) (A) (A) (A) (A) (A)
                 (A) (A) (A) (A) (A) (A) (A) (A) (A) (A) (A) (A)
                 (A) (A) (A) (A) (A) (A) (A) (A) (A) (A) (A) (A)
                 (A) (A) (A) (A) (A) (A) (A) (A) (A) (A) (A) (A)
                 (A) (A) (A) (A) (A) (A) (A) (A) (A) (A) (A) (A)
                 (A) (A) (A) (A) (A) (A) (A) (A) (A) (A) (A) (A)
                 (A) (A) (A) (A) (A) (A) (A) (A) (A) (A) (A) (A)
                 (A) (A) (A) (A) (A) (A) (A) (A) (A) (A) (A) (A)
                 (A) (A) (A) (A) (A) (A) (A) (A) (A) (A) (A) (A)
                 (A) (A) (A) (A) (A) (A) (A) (A) (A) (A) (A) (A)
                 (A) (A) (A) (A) (A) (A) (A) (A) (A) (A) (A) (A)
                 (A) (A) (A) (A) (A) (A) (A) (A) (A) (A) (A) (A)
                 (A) (A) (A) (A) (A) (A) (A) (A) (A) (A) (A) (A)
                 (A) (A) (A) (A) (A) (A) (A) (A) (A) (A) (A) (A)
                 (A) (A) (A) (A) (A) (A) (A) (A) (A) (A) (A) (A)
                 (A) (A) (A) (A) (A) (A) (A) (A) (A) (A) (A) (A)
                 (A) (A) (A) (A) (A) (A) (A) (A) (A)
 The electronic state of the initial guess is 1-A.
 Requested convergence on RMS density matrix=1.00D-08 within 128 cycles.
 Requested convergence on MAX density matrix=1.00D-06.
 Requested convergence on             energy=1.00D-06.
 No special actions if energy rises.
 Integral accuracy reduced to 1.0D-05 until final iterations.
 Initial convergence to 1.0D-05 achieved.  Increase integral accuracy.
 SCF Done:  E(RHF) =  -1332.66535832     A.U. after   16 cycles
             Convg  =    0.6105D-08             -V/T =  2.0024
             S**2   =   0.0000

 **********************************************************************

            Population analysis using the SCF density.

 **********************************************************************

 Orbital symmetries:
 BldTbl:  Degeneracy threshold= 1.00D-02
       Occupied  (A) (A) (A) (A) (A) (A) (A) (A) (A) (A) (A) (A)
                 (A) (A) (A) (A) (A) (A) (A) (A) (A) (A) (A) (A)
                 (A) (A) (A) (A) (A) (A) (A) (A) (A) (A) (A) (A)
                 (A) (A) (A) (A) (A) (A) (A) (A) (A) (A) (A) (A)
                 (A) (A) (A) (A) (A) (A) (A) (A) (A) (A) (A) (A)
                 (A) (A) (A) (A) (A) (A) (A) (A) (A) (A) (A) (A)
                 (A) (A) (A) (A) (A) (A) (A) (A) (A) (A) (A) (A)
                 (A) (A) (A) (A) (A) (A) (A) (A) (A) (A) (A) (A)
                 (A) (A) (A) (A) (A) (A) (A) (A) (A) (A) (A) (A)
                 (A) (A)
       Virtual   (A) (A) (A) (A) (A) (A) (A) (A) (A) (A) (A) (A)
                 (A) (A) (A) (A) (A) (A) (A) (A) (A) (A) (A) (A)
                 (A) (A) (A) (A) (A) (A) (A) (A) (A) (A) (A) (A)
                 (A) (A) (A) (A) (A) (A) (A) (A) (A) (A) (A) (A)
                 (A) (A) (A) (A) (A) (A) (A) (A) (A) (A) (A) (A)
                 (A) (A) (A) (A) (A) (A) (A) (A) (A) (A) (A) (A)
                 (A) (A) (A) (A) (A) (A) (A) (A) (A) (A) (A) (A)
                 (A) (A) (A) (A) (A) (A) (A) (A) (A) (A) (A) (A)
                 (A) (A) (A) (A) (A) (A) (A) (A) (A) (A) (A) (A)
                 (A) (A) (A) (A) (A) (A) (A) (A) (A) (A) (A) (A)
                 (A) (A) (A) (A) (A) (A) (A) (A) (A) (A) (A) (A)
                 (A) (A) (A) (A) (A) (A) (A) (A) (A) (A) (A) (A)
                 (A) (A) (A) (A) (A) (A) (A) (A) (A) (A) (A) (A)
                 (A) (A) (A) (A) (A) (A) (A) (A) (A) (A) (A) (A)
                 (A) (A) (A) (A) (A) (A) (A) (A) (A) (A) (A) (A)
                 (A) (A) (A) (A) (A) (A) (A) (A) (A) (A) (A) (A)
                 (A) (A) (A) (A) (A) (A) (A) (A) (A) (A) (A) (A)
                 (A) (A) (A) (A) (A) (A) (A) (A) (A) (A) (A) (A)
                 (A) (A) (A) (A) (A) (A) (A) (A) (A) (A) (A) (A)
                 (A) (A) (A) (A) (A) (A) (A) (A) (A) (A) (A) (A)
                 (A) (A) (A) (A) (A) (A) (A) (A) (A) (A) (A) (A)
                 (A) (A) (A) (A) (A) (A) (A) (A) (A) (A) (A) (A)
                 (A) (A) (A) (A) (A) (A) (A) (A) (A) (A) (A) (A)
                 (A) (A) (A) (A) (A) (A) (A) (A) (A) (A) (A) (A)
                 (A) (A) (A) (A) (A) (A) (A) (A) (A) (A) (A) (A)
                 (A) (A) (A) (A) (A) (A) (A) (A) (A) (A) (A) (A)
                 (A) (A) (A) (A) (A) (A) (A) (A) (A) (A) (A) (A)
                 (A) (A) (A) (A) (A) (A) (A) (A) (A) (A) (A) (A)
                 (A) (A) (A) (A) (A) (A) (A) (A) (A) (A) (A) (A)
                 (A) (A) (A) (A) (A) (A) (A) (A) (A) (A) (A) (A)
                 (A) (A) (A) (A) (A) (A) (A) (A) (A) (A) (A) (A)
                 (A) (A) (A) (A) (A) (A) (A) (A) (A) (A) (A) (A)
                 (A) (A) (A) (A) (A) (A) (A) (A) (A) (A) (A) (A)
                 (A) (A) (A) (A) (A) (A) (A) (A) (A)
 The electronic state is 1-A.
 Alpha  occ. eigenvalues --  -20.46394 -20.28247 -20.28229 -15.54533 -15.51676
 Alpha  occ. eigenvalues --  -11.29807 -11.22826 -11.22429 -11.22383 -11.21896
 Alpha  occ. eigenvalues --  -11.18555 -11.18255 -11.18103 -11.18021 -11.17866
 Alpha  occ. eigenvalues --  -11.17589 -11.17285 -11.16971 -11.16909 -11.16881
 Alpha  occ. eigenvalues --  -11.16800 -11.16795 -11.16558 -11.16311 -11.14130
 Alpha  occ. eigenvalues --  -11.13535 -11.12675 -11.12630 -11.11363 -11.11340
 Alpha  occ. eigenvalues --  -11.10301  -1.31346  -1.20370  -1.17991  -1.17103
 Alpha  occ. eigenvalues --   -1.07927  -1.06693  -1.04866  -1.02997  -1.02615
 Alpha  occ. eigenvalues --   -0.98820  -0.95160  -0.94626  -0.94142  -0.93735
 Alpha  occ. eigenvalues --   -0.91796  -0.88976  -0.88313  -0.85035  -0.81101
 Alpha  occ. eigenvalues --   -0.78391  -0.76723  -0.76504  -0.74492  -0.72904
 Alpha  occ. eigenvalues --   -0.70680  -0.69712  -0.68043  -0.65357  -0.62394
 Alpha  occ. eigenvalues --   -0.61630  -0.61136  -0.60444  -0.59870  -0.59496
 Alpha  occ. eigenvalues --   -0.56735  -0.56547  -0.55721  -0.54721  -0.54144
 Alpha  occ. eigenvalues --   -0.53979  -0.53081  -0.52101  -0.51911  -0.51521
 Alpha  occ. eigenvalues --   -0.51083  -0.49767  -0.49581  -0.48775  -0.47996
 Alpha  occ. eigenvalues --   -0.47763  -0.47031  -0.46495  -0.46170  -0.44844
 Alpha  occ. eigenvalues --   -0.44552  -0.44344  -0.43387  -0.43120  -0.42335
 Alpha  occ. eigenvalues --   -0.42188  -0.41635  -0.41016  -0.39100  -0.38676
 Alpha  occ. eigenvalues --   -0.38422  -0.36129  -0.35917  -0.35676  -0.34941
 Alpha  occ. eigenvalues --   -0.33302  -0.27286  -0.26140  -0.25367  -0.22230
 Alpha  occ. eigenvalues --   -0.21493  -0.21430  -0.18592  -0.18463  -0.17400
 Alpha virt. eigenvalues --    0.17994   0.19957   0.20183   0.22214   0.24680
 Alpha virt. eigenvalues --    0.25572   0.27258   0.27957   0.28572   0.29307
 Alpha virt. eigenvalues --    0.29886   0.30911   0.32500   0.33816   0.34300
 Alpha virt. eigenvalues --    0.35415   0.35918   0.36010   0.36151   0.36816
 Alpha virt. eigenvalues --    0.36982   0.37456   0.37843   0.38663   0.38820
 Alpha virt. eigenvalues --    0.39391   0.39715   0.41033   0.42232   0.42380
 Alpha virt. eigenvalues --    0.43185   0.43237   0.43483   0.44017   0.44658
 Alpha virt. eigenvalues --    0.45055   0.45938   0.46716   0.48000   0.48117
 Alpha virt. eigenvalues --    0.49404   0.50620   0.51649   0.52606   0.52959
 Alpha virt. eigenvalues --    0.53791   0.54633   0.55063   0.55677   0.56949
 Alpha virt. eigenvalues --    0.58042   0.59027   0.60210   0.60404   0.61664
 Alpha virt. eigenvalues --    0.62017   0.62206   0.63324   0.66234   0.67436
 Alpha virt. eigenvalues --    0.68157   0.69206   0.71966   0.74504   0.75434
 Alpha virt. eigenvalues --    0.76734   0.77273   0.78683   0.78822   0.79458
 Alpha virt. eigenvalues --    0.79553   0.80317   0.81229   0.81701   0.81874
 Alpha virt. eigenvalues --    0.82208   0.82883   0.83678   0.84132   0.85221
 Alpha virt. eigenvalues --    0.85456   0.86491   0.86701   0.87348   0.87559
 Alpha virt. eigenvalues --    0.88091   0.88423   0.88829   0.89402   0.89938
 Alpha virt. eigenvalues --    0.90076   0.90550   0.90963   0.91168   0.92018
 Alpha virt. eigenvalues --    0.92389   0.93506   0.93794   0.94317   0.94762
 Alpha virt. eigenvalues --    0.95036   0.96116   0.96291   0.96571   0.97456
 Alpha virt. eigenvalues --    0.98500   0.99445   0.99751   1.00725   1.00794
 Alpha virt. eigenvalues --    1.01628   1.01854   1.02901   1.03348   1.03596
 Alpha virt. eigenvalues --    1.06125   1.06825   1.08652   1.08936   1.09852
 Alpha virt. eigenvalues --    1.10864   1.12391   1.13409   1.13517   1.14024
 Alpha virt. eigenvalues --    1.14558   1.15375   1.16174   1.16763   1.17358
 Alpha virt. eigenvalues --    1.17676   1.17913   1.18229   1.18432   1.18677
 Alpha virt. eigenvalues --    1.19163   1.19802   1.20304   1.20505   1.21116
 Alpha virt. eigenvalues --    1.21665   1.21867   1.22073   1.22607   1.23097
 Alpha virt. eigenvalues --    1.23656   1.23726   1.23753   1.24216   1.24830
 Alpha virt. eigenvalues --    1.25035   1.25935   1.26271   1.26576   1.27058
 Alpha virt. eigenvalues --    1.27550   1.28864   1.29241   1.29664   1.30007
 Alpha virt. eigenvalues --    1.30421   1.31124   1.31520   1.32327   1.33019
 Alpha virt. eigenvalues --    1.34148   1.36185   1.36961   1.37642   1.37939
 Alpha virt. eigenvalues --    1.38427   1.38983   1.39192   1.40067   1.40289
 Alpha virt. eigenvalues --    1.42790   1.44967   1.45025   1.45679   1.46862
 Alpha virt. eigenvalues --    1.47822   1.48603   1.49157   1.50119   1.50336
 Alpha virt. eigenvalues --    1.51727   1.51982   1.52958   1.53533   1.54949
 Alpha virt. eigenvalues --    1.55890   1.57125   1.57899   1.58064   1.59143
 Alpha virt. eigenvalues --    1.63455   1.64249   1.66464   1.66551   1.67091
 Alpha virt. eigenvalues --    1.68605   1.69930   1.71126   1.71835   1.73490
 Alpha virt. eigenvalues --    1.73822   1.75762   1.76757   1.77177   1.77438
 Alpha virt. eigenvalues --    1.77805   1.78743   1.79506   1.81303   1.82812
 Alpha virt. eigenvalues --    1.83519   1.83739   1.84142   1.84624   1.85186
 Alpha virt. eigenvalues --    1.85504   1.85752   1.87553   1.88092   1.90112
 Alpha virt. eigenvalues --    1.90912   1.91424   1.93349   1.96387   1.96615
 Alpha virt. eigenvalues --    1.98946   2.01266   2.02229   2.05398   2.07124
 Alpha virt. eigenvalues --    2.07595   2.07851   2.10641   2.12924   2.14537
 Alpha virt. eigenvalues --    2.15093   2.15514   2.16276   2.16637   2.17098
 Alpha virt. eigenvalues --    2.17502   2.17802   2.18525   2.19566   2.20990
 Alpha virt. eigenvalues --    2.21657   2.21853   2.22627   2.23327   2.23443
 Alpha virt. eigenvalues --    2.24177   2.25049   2.26751   2.27695   2.28590
 Alpha virt. eigenvalues --    2.29565   2.30309   2.30705   2.31426   2.32581
 Alpha virt. eigenvalues --    2.34182   2.35357   2.36221   2.36669   2.37176
 Alpha virt. eigenvalues --    2.38104   2.39069   2.39879   2.39966   2.41574
 Alpha virt. eigenvalues --    2.42558   2.43181   2.43734   2.44218   2.45402
 Alpha virt. eigenvalues --    2.45903   2.46806   2.47541   2.48173   2.49541
 Alpha virt. eigenvalues --    2.50386   2.51340   2.51973   2.52411   2.53408
 Alpha virt. eigenvalues --    2.54232   2.54879   2.56651   2.56996   2.57265
 Alpha virt. eigenvalues --    2.58323   2.59553   2.60157   2.60838   2.62347
 Alpha virt. eigenvalues --    2.63650   2.64426   2.64633   2.65582   2.67003
 Alpha virt. eigenvalues --    2.67944   2.68608   2.68813   2.70359   2.71428
 Alpha virt. eigenvalues --    2.72061   2.73203   2.73382   2.74626   2.75499
 Alpha virt. eigenvalues --    2.76049   2.76653   2.78737   2.81752   2.82042
 Alpha virt. eigenvalues --    2.83635   2.84124   2.85484   2.88282   2.90331
 Alpha virt. eigenvalues --    2.92157   2.94351   2.97447   2.98430   2.98794
 Alpha virt. eigenvalues --    2.99539   3.00899   3.02287   3.02581   3.03603
 Alpha virt. eigenvalues --    3.04998   3.05983   3.07347   3.08699   3.09900
 Alpha virt. eigenvalues --    3.10455   3.10815   3.10942   3.13399   3.14626
 Alpha virt. eigenvalues --    3.14884   3.15658   3.18556   3.19924   3.21576
 Alpha virt. eigenvalues --    3.22381   3.23599   3.24047   3.25200   3.26007
 Alpha virt. eigenvalues --    3.26717   3.31591   3.33455   3.33481   3.36981
 Alpha virt. eigenvalues --    3.37720   3.41809   3.45547   3.49698   3.49888
 Alpha virt. eigenvalues --    3.55280   3.60680   3.62113   3.67975   3.70925
 Alpha virt. eigenvalues --    3.74740   3.82770   3.84435   3.94560   4.50268
 Alpha virt. eigenvalues --    4.52034   4.54512   4.57046   4.59983   4.60171
 Alpha virt. eigenvalues --    4.60530   4.62862   4.64701   4.65585   4.65801
 Alpha virt. eigenvalues --    4.68064   4.68673   4.72554   4.75826   4.78657
 Alpha virt. eigenvalues --    4.82278   4.84506   4.85404   4.87006   4.87569
 Alpha virt. eigenvalues --    4.92276   4.94909   4.98388   5.04365   5.07158
 Alpha virt. eigenvalues --    5.07261   5.16329   5.20776   5.25351   5.32387
          Condensed to atoms (all electrons):
 Mulliken atomic charges:
              1
     1  C   -0.496636
     2  C   -0.306251
     3  C    0.083240
     4  C   -0.375257
     5  C    0.109033
     6  N   -0.889536
     7  C    0.398268
     8  C   -0.275691
     9  C   -0.171651
    10  C   -0.235601
    11  C   -0.173721
    12  C   -0.275816
    13  C   -0.035271
    14  C   -0.241047
    15  C    0.022563
    16  C   -0.223260
    17  C   -0.213441
    18  C    0.283895
    19  N   -0.795151
    20  C    0.751101
    21  C   -0.573771
    22  O   -0.642134
    23  C    0.007603
    24  C   -0.230508
    25  C   -0.194679
    26  C   -0.123953
    27  C   -0.194617
    28  C   -0.233782
    29  C    0.750699
    30  O   -0.753482
    31  H    0.200764
    32  H    0.184213
    33  H    0.162857
    34  H    0.153781
    35  H    0.161620
    36  H    0.196641
    37  H    0.160767
    38  H    0.183146
    39  H    0.173677
    40  H    0.379004
    41  H    0.208875
    42  H    0.201680
    43  H    0.187776
    44  H    0.196480
    45  H    0.185418
    46  H    0.247182
    47  H    0.215937
    48  H    0.202482
    49  H    0.196232
    50  H    0.189679
    51  H    0.204128
    52  H    0.176506
    53  H    0.230005
    54  H    0.229433
    55  H    0.173743
    56  O   -0.753173
 Sum of Mulliken charges=  -1.00000
 Atomic charges with hydrogens summed into heavy atoms:
              1
     1  C   -0.018379
     2  C    0.051157
     3  C    0.284004
     4  C   -0.018433
     5  C    0.293246
     6  N   -0.510532
     7  C    0.398268
     8  C   -0.066816
     9  C    0.030029
    10  C   -0.047825
    11  C    0.022759
    12  C   -0.090398
    13  C   -0.035271
    14  C    0.006134
    15  C    0.022563
    16  C   -0.007323
    17  C   -0.010959
    18  C    0.283895
    19  N   -0.795151
    20  C    0.751101
    21  C    0.016268
    22  O   -0.642134
    23  C    0.007603
    24  C   -0.054002
    25  C    0.035326
    26  C   -0.123953
    27  C    0.034816
    28  C   -0.060038
    29  C    0.750699
    30  O   -0.753482
    31  H    0.000000
    32  H    0.000000
    33  H    0.000000
    34  H    0.000000
    35  H    0.000000
    36  H    0.000000
    37  H    0.000000
    38  H    0.000000
    39  H    0.000000
    40  H    0.000000
    41  H    0.000000
    42  H    0.000000
    43  H    0.000000
    44  H    0.000000
    45  H    0.000000
    46  H    0.000000
    47  H    0.000000
    48  H    0.000000
    49  H    0.000000
    50  H    0.000000
    51  H    0.000000
    52  H    0.000000
    53  H    0.000000
    54  H    0.000000
    55  H    0.000000
    56  O   -0.753173
 Sum of Mulliken charges=  -1.00000
 Entering OneElI...
 OneElI was handed  5883265 working-precision words.
 Multipole integrals L=0 to 4 MinM= 0 MaxM= 0.
 Requested accuracy = 0.1000D-12
 PrsmSu:  NPrtUS=   1 ThrOK=F
 PRISM was handed     5033603 working-precision words and  9561 shell-pairs
 Electronic moments (au):
  -220.00000000    11.22496796     2.03279905     0.18161293
-11308.66252037 -4317.93982800 -1339.39882332   -17.60449053
   -19.49979165    -3.76742554 36459.87445248-17780.01707808
  -164.24622012  -436.17483738 22224.65750298  8487.32289360
 -4600.96735396    90.15558214 -4899.76525388  1768.12311003
******************************-25553.50951462-65505.42015606
 -5998.99956325 20864.75082923-17213.96958341  6908.32963836
 -1750.05288563-89753.41314510-81336.68086238-28466.70330301
 11912.84389814 -1199.52932458 14111.09336680
 Electronic spatial extent (au):  <R**2>= 16966.0012
 Nuclear    moments (au):
   219.00000000     0.00000000     0.00000000     0.00000000
 10966.32913187  4176.47920096  1204.07888346     0.00000000
     0.00000000     0.00000000-34118.17964964 17755.78743774
   187.23587707   450.66350582-21775.24512242 -8411.55762923
  4651.65384825   -66.51286919  4885.38152802 -1766.38328284
***************226622.83711616 20871.95203760 61719.10947425
  2852.50799862-21659.09374110 16830.91272466 -6923.82781227
  1656.37728957 78873.80510309 73036.56511075 25175.75314843
-11477.09531865  1050.82732069-14185.40871918
 Total      moments (au):
    -1.00000000    11.22496796     2.03279905     0.18161293
  -342.33338850  -141.46062704  -135.31993986   -17.60449053
   -19.49979165    -3.76742554  2341.69480283   -24.22964034
    22.98965695    14.48866844   449.41238056    75.76526438
    50.68649429    23.64271294   -14.38372586     1.73982719
-81305.80717467-15741.87740107 -4681.55747702 -3786.31068181
 -3146.49156463  -794.34291187  -383.05685876   -15.49817390
   -93.67559607-10879.60804202 -8300.11575162 -3290.95015457
   435.74857949  -148.70200390   -74.31535238
 Charge=    -1.0000 electrons
 Dipole moment (field-independent basis, Debye):
    X=    28.5310    Y=     5.1669    Z=     0.4616  Tot=    28.9988
 Quadrupole moment (field-independent basis, Debye-Ang):
   XX=  -460.4501   YY=  -190.2694   ZZ=  -182.0099
   XY=   -23.6786   XZ=   -26.2279   YZ=    -5.0673
 Traceless Quadrupole moment (field-independent basis, Debye-Ang):
   XX=  -182.8736   YY=    87.3071   ZZ=    95.5665
   XY=   -23.6786   XZ=   -26.2279   YZ=    -5.0673
 Octapole moment (field-independent basis, Debye-Ang**2):
  XXX=  1666.7280  YYY=   -17.2457  ZZZ=    16.3632  XYY=    10.3125
  XXY=   319.8744  XXZ=    53.9268  XZZ=    36.0767  YZZ=    16.8280
  YYZ=   -10.2378  XYZ=     1.2383
 Hexadecapole moment (field-independent basis, Debye-Ang**3):
 XXXX=-30623.6631 YYYY= -5929.1454 ZZZZ= -1763.2989 XXXY= -1426.1060
 XXXZ= -1185.1195 YYYX=  -299.1876 YYYZ=  -144.2776 ZZZX=    -5.8374
 ZZZY=   -35.2827 XXYY= -4097.7817 XXZZ= -3126.2213 YYZZ= -1239.5295
 XXYZ=   164.1238 YYXZ=   -56.0083 ZZXY=   -27.9907
 N-N= 2.856351886812D+03 E-N=-8.846444254148D+03  KE= 1.329445548883D+03
 Entering OneElI...
 OneElI was handed  5350900 working-precision words.
 Calculate electrostatic properties
    NBasis =   515  MinDer = 0  MaxDer = 0
    NGrid  =    56  NMatD  =   1
 Requested accuracy = 0.1000D-12
 PrsmSu:  NPrtUS=   1 ThrOK=F
 PRISM was handed     4580527 working-precision words and  8337 shell-pairs
 --------------------------------------------------------
       Center         ----      EFG at Nuclei      ----
                      3XX-RR        3YY-RR        3ZZ-RR
 --------------------------------------------------------
     1   Atom       -0.002981      0.001230      0.001751
     2   Atom        0.015220     -0.003377     -0.011842
     3   Atom        0.043233     -0.032592     -0.010641
     4   Atom       -0.006045      0.007853     -0.001809
     5   Atom        0.015674     -0.109088      0.093413
     6   Atom        0.676912     -0.118856     -0.558056
     7   Atom       -0.220552      0.014764      0.205788
     8   Atom       -0.091871      0.037954      0.053917
     9   Atom       -0.191397      0.057990      0.133407
    10   Atom       -0.127975      0.020454      0.107521
    11   Atom       -0.198661      0.012831      0.185830
    12   Atom       -0.079696      0.028697      0.050998
    13   Atom        0.176674      0.082434     -0.259108
    14   Atom        0.140038      0.166658     -0.306696
    15   Atom        0.187604      0.171376     -0.358981
    16   Atom        0.152641      0.146750     -0.299391
    17   Atom        0.188776      0.082091     -0.270867
    18   Atom       -0.145069      0.260413     -0.115345
    19   Atom       -0.508818      0.496695      0.012123
    20   Atom        0.332078     -0.371648      0.039570
    21   Atom        0.060433      0.007269     -0.067702
    22   Atom       -0.969371     -0.315113      1.284484
    23   Atom        0.056935     -0.052569     -0.004366
    24   Atom        0.188868     -0.127436     -0.061432
    25   Atom        0.183666     -0.129085     -0.054582
    26   Atom        0.258412     -0.161548     -0.096865
    27   Atom        0.181763     -0.128090     -0.053673
    28   Atom        0.196101     -0.128886     -0.067215
    29   Atom        0.184537     -0.144997     -0.039541
    30   Atom        0.836149     -0.388904     -0.447245
    31   Atom       -0.093907      0.065677      0.028230
    32   Atom        0.072498      0.116328     -0.188826
    33   Atom        0.078057     -0.021717     -0.056341
    34   Atom        0.049740     -0.088519      0.038779
    35   Atom       -0.101807      0.075280      0.026527
    36   Atom        0.034185     -0.110389      0.076204
    37   Atom       -0.092341      0.078712      0.013629
    38   Atom       -0.022973     -0.114333      0.137306
    39   Atom        0.077306      0.115825     -0.193131
    40   Atom        0.202866      0.151727     -0.354593
    41   Atom        0.100549     -0.143269      0.042720
    42   Atom        0.151794      0.142130     -0.293924
    43   Atom        0.027128     -0.041896      0.014768
    44   Atom        0.091380     -0.148722      0.057341
    45   Atom        0.157614      0.139159     -0.296773
    46   Atom        0.050831     -0.200566      0.149735
    47   Atom        0.021555     -0.187116      0.165561
    48   Atom        0.057433     -0.218670      0.161237
    49   Atom       -0.126165      0.004716      0.121449
    50   Atom        0.113877     -0.246088      0.132211
    51   Atom       -0.014102      0.152910     -0.138808
    52   Atom        0.003812      0.018391     -0.022203
    53   Atom        0.081703     -0.012241     -0.069462
    54   Atom        0.021184      0.006457     -0.027642
    55   Atom        0.066682     -0.001352     -0.065330
    56   Atom        0.462424     -0.274797     -0.187627
 --------------------------------------------------------
                        XY            XZ            YZ
 --------------------------------------------------------
     1   Atom       -0.006032      0.010276      0.006585
     2   Atom       -0.023440      0.049530     -0.033689
     3   Atom       -0.105840      0.167292      0.189898
     4   Atom        0.033029      0.015373      0.022907
     5   Atom        0.124200     -0.041590      0.113879
     6   Atom        0.859958      0.337647      0.211368
     7   Atom       -0.172855     -0.016528     -0.200129
     8   Atom       -0.129937     -0.058139     -0.010991
     9   Atom       -0.257501     -0.091130     -0.064413
    10   Atom       -0.145524     -0.051249     -0.057255
    11   Atom       -0.230246     -0.114640     -0.047433
    12   Atom       -0.131291     -0.057321     -0.003255
    13   Atom       -0.007453      0.047196     -0.113260
    14   Atom        0.005467      0.024230     -0.087666
    15   Atom        0.007900      0.035212     -0.097705
    16   Atom       -0.012198      0.033901     -0.071012
    17   Atom        0.003722      0.006503     -0.078096
    18   Atom        0.022263      0.011345     -0.093018
    19   Atom       -0.094573     -0.072425      0.728286
    20   Atom       -0.007797     -0.102704     -0.321303
    21   Atom       -0.018516      0.054215      0.031267
    22   Atom        0.147923     -0.217266     -0.956007
    23   Atom        0.012115     -0.003773     -0.230292
    24   Atom       -0.011584      0.029053     -0.192180
    25   Atom        0.017759      0.004188     -0.300622
    26   Atom        0.006409      0.015133     -0.289195
    27   Atom        0.003710      0.008454     -0.301400
    28   Atom        0.016834     -0.006553     -0.185592
    29   Atom        0.019566      0.000656     -0.431038
    30   Atom        0.754214     -0.814527      0.048106
    31   Atom       -0.145431     -0.157173     -0.090484
    32   Atom       -0.038331     -0.161344     -0.095484
    33   Atom        0.113376      0.129665     -0.190417
    34   Atom        0.157109     -0.104929      0.168862
    35   Atom       -0.144372     -0.175947     -0.099035
    36   Atom        0.172694     -0.084412      0.137865
    37   Atom       -0.134440     -0.177457     -0.103260
    38   Atom       -0.208338      0.052776      0.067744
    39   Atom       -0.041932     -0.155248     -0.107546
    40   Atom        0.027864      0.080522      0.119615
    41   Atom        0.154865     -0.074167      0.175917
    42   Atom       -0.002803      0.072051      0.075950
    43   Atom        0.176949      0.140389     -0.157542
    44   Atom        0.156272     -0.078490      0.170594
    45   Atom        0.004300      0.072232      0.080084
    46   Atom        0.180590     -0.045741      0.081820
    47   Atom       -0.204588      0.021842      0.039955
    48   Atom        0.182122     -0.036333      0.065720
    49   Atom        0.203875      0.088247     -0.055776
    50   Atom       -0.139682     -0.023790     -0.076642
    51   Atom        0.004339     -0.217809      0.012234
    52   Atom       -0.146777      0.160958      0.175213
    53   Atom        0.111302     -0.128419      0.198623
    54   Atom       -0.143186      0.157897      0.170578
    55   Atom        0.116894     -0.135044      0.204960
    56   Atom       -0.818840      0.952127     -0.132565
 --------------------------------------------------------


 ---------------------------------------------------------------------------------
              Nuclear Quadrupole in Principal Axis System
 ---------------------------------------------------------------------------------

       Atom             a.u.   MegaHertz   Gauss  10(-4) cm-1        Axes

              Baa    -0.0158    -2.115    -0.755    -0.705  0.6779  0.4622 -0.5716
     1 C(13)  Bbb     0.0055     0.734     0.262     0.245 -0.5194  0.8515  0.0726
              Bcc     0.0103     1.381     0.493     0.461  0.5203  0.2476  0.8173
 
              Baa    -0.0540    -7.245    -2.585    -2.417 -0.4755  0.3241  0.8178
     2 C(13)  Bbb    -0.0193    -2.589    -0.924    -0.864  0.5625  0.8268 -0.0007
              Bcc     0.0733     9.834     3.509     3.280  0.6764 -0.4597  0.5755
 
              Baa    -0.3157   -42.370   -15.119   -14.133 -0.4758 -0.6056  0.6378
     3 C(13)  Bbb     0.1131    15.181     5.417     5.064 -0.6853  0.7098  0.1627
              Bcc     0.2026    27.189     9.702     9.069  0.5513  0.3597  0.7528
 
              Baa    -0.0332    -4.449    -1.588    -1.484  0.7384 -0.6631  0.1225
     4 C(13)  Bbb    -0.0163    -2.182    -0.778    -0.728 -0.3986 -0.2828  0.8724
              Bcc     0.0494     6.631     2.366     2.212  0.5439  0.6930  0.4732
 
              Baa    -0.2296   -30.811   -10.994   -10.277 -0.4699  0.8118 -0.3467
     5 C(13)  Bbb     0.0829    11.118     3.967     3.709  0.8666  0.3495 -0.3561
              Bcc     0.1468    19.693     7.027     6.569  0.1679  0.4678  0.8678
 
              Baa    -0.6690   -25.803    -9.207    -8.607 -0.5574  0.8190  0.1360
     6 N(14)  Bbb    -0.6424   -24.776    -8.841    -8.265 -0.0991 -0.2283  0.9685
              Bcc     1.3114    50.579    18.048    16.872  0.8243  0.5264  0.2084
 
              Baa    -0.3365   -45.155   -16.112   -15.062  0.8197  0.5288  0.2201
     7 C(13)  Bbb    -0.0075    -1.005    -0.359    -0.335 -0.5525  0.6287  0.5472
              Bcc     0.3440    46.160    16.471    15.397  0.1509 -0.5701  0.8076
 
              Baa    -0.1851   -24.832    -8.861    -8.283  0.8367  0.4987  0.2265
     8 C(13)  Bbb     0.0594     7.975     2.846     2.660 -0.0121 -0.3966  0.9179
              Bcc     0.1256    16.857     6.015     5.623 -0.5476  0.7707  0.3258
 
              Baa    -0.3771   -50.607   -18.058   -16.881  0.8266  0.5208  0.2133
     9 C(13)  Bbb     0.1571    21.087     7.524     7.034 -0.2313 -0.0311  0.9724
              Bcc     0.2200    29.520    10.534     9.847 -0.5130  0.8531 -0.0947
 
              Baa    -0.2331   -31.279   -11.161   -10.433  0.8261  0.5221  0.2121
    10 C(13)  Bbb     0.0939    12.603     4.497     4.204 -0.5376  0.6176  0.5740
              Bcc     0.1392    18.676     6.664     6.230  0.1687 -0.5882  0.7909
 
              Baa    -0.3730   -50.054   -17.861   -16.696  0.8271  0.5198  0.2138
    11 C(13)  Bbb     0.1528    20.504     7.316     6.839 -0.4404  0.8356 -0.3283
              Bcc     0.2202    29.550    10.544     9.857 -0.3493  0.1774  0.9201
 
              Baa    -0.1783   -23.931    -8.539    -7.983  0.8235  0.5256  0.2133
    12 C(13)  Bbb     0.0496     6.650     2.373     2.218  0.0474 -0.4385  0.8975
              Bcc     0.1288    17.281     6.166     5.764 -0.5653  0.7290  0.3861
 
              Baa    -0.2972   -39.877   -14.229   -13.302 -0.0906  0.2831  0.9548
    13 C(13)  Bbb     0.1105    14.827     5.291     4.946  0.2813  0.9270 -0.2481
              Bcc     0.1867    25.051     8.939     8.356  0.9553 -0.2461  0.1637
 
              Baa    -0.3237   -43.443   -15.501   -14.491 -0.0534  0.1763  0.9829
    14 C(13)  Bbb     0.1413    18.966     6.768     6.326  0.9982 -0.0171  0.0573
              Bcc     0.1824    24.477     8.734     8.164  0.0269  0.9842 -0.1751
 
              Baa    -0.3787   -50.818   -18.133   -16.951 -0.0635  0.1754  0.9824
    15 C(13)  Bbb     0.1877    25.183     8.986     8.400 -0.5794  0.7950 -0.1794
              Bcc     0.1910    25.635     9.147     8.551  0.8125  0.5807 -0.0511
 
              Baa    -0.3126   -41.945   -14.967   -13.991 -0.0679  0.1507  0.9862
    16 C(13)  Bbb     0.1390    18.653     6.656     6.222  0.7353  0.6757 -0.0526
              Bcc     0.1736    23.291     8.311     7.769 -0.6744  0.7216 -0.1567
 
              Baa    -0.2875   -38.577   -13.765   -12.868 -0.0150  0.2069  0.9783
    17 C(13)  Bbb     0.0985    13.223     4.718     4.411 -0.0254  0.9780 -0.2072
              Bcc     0.1889    25.354     9.047     8.457  0.9996  0.0280  0.0094
 
              Baa    -0.1582   -21.230    -7.575    -7.082  0.7942 -0.1718 -0.5829
    18 C(13)  Bbb    -0.1248   -16.750    -5.977    -5.587  0.6060  0.1534  0.7805
              Bcc     0.2830    37.980    13.552    12.669  0.0446  0.9731 -0.2259
 
              Baa    -0.5198   -20.047    -7.153    -6.687  0.8872 -0.2113  0.4101
    19 N(14)  Bbb    -0.5114   -19.723    -7.037    -6.579 -0.4549 -0.5492  0.7011
              Bcc     1.0311    39.769    14.191    13.266 -0.0771  0.8086  0.5833
 
              Baa    -0.5511   -73.953   -26.388   -24.668  0.0641  0.8719  0.4854
    20 C(13)  Bbb     0.1705    22.879     8.164     7.632  0.4612 -0.4573  0.7604
              Bcc     0.3806    51.074    18.225    17.037  0.8850  0.1751 -0.4315
 
              Baa    -0.0995   -13.357    -4.766    -4.456 -0.3371 -0.3179  0.8862
    21 C(13)  Bbb     0.0186     2.494     0.890     0.832 -0.0140  0.9429  0.3329
              Bcc     0.0810    10.864     3.877     3.624  0.9414 -0.0998  0.3223
 
              Baa    -1.0014    72.460    25.855    24.170  0.9807 -0.1953  0.0115
    22 O(17)  Bbb    -0.7545    54.592    19.480    18.210  0.1712  0.8849  0.4332
              Bcc     1.7558  -127.051   -45.335   -42.380 -0.0948 -0.4228  0.9012
 
              Baa    -0.2601   -34.910   -12.457   -11.645 -0.0204  0.7432  0.6688
    23 C(13)  Bbb     0.0563     7.549     2.694     2.518  0.9970 -0.0344  0.0687
              Bcc     0.2039    27.360     9.763     9.126 -0.0741 -0.6682  0.7403
 
              Baa    -0.2896   -38.866   -13.868   -12.964 -0.0207  0.7634  0.6456
    24 C(13)  Bbb     0.0915    12.283     4.383     4.097 -0.2910 -0.6224  0.7266
              Bcc     0.1981    26.583     9.485     8.867  0.9565 -0.1728  0.2350
 
              Baa    -0.3952   -53.032   -18.923   -17.690 -0.0278  0.7493  0.6617
    25 C(13)  Bbb     0.1816    24.368     8.695     8.128  0.9595 -0.1657  0.2279
              Bcc     0.2136    28.664    10.228     9.561 -0.2804 -0.6412  0.7143
 
              Baa    -0.4205   -56.431   -20.136   -18.823 -0.0219  0.7450  0.6667
    26 C(13)  Bbb     0.1613    21.643     7.723     7.219 -0.0717 -0.6663  0.7422
              Bcc     0.2592    34.788    12.413    11.604  0.9972 -0.0315  0.0680
 
              Baa    -0.3947   -52.964   -18.899   -17.667 -0.0145  0.7490  0.6624
    27 C(13)  Bbb     0.1814    24.343     8.686     8.120  0.9924  0.0920 -0.0822
              Bcc     0.2133    28.621    10.213     9.547  0.1225 -0.6561  0.7446
 
              Baa    -0.2863   -38.424   -13.711   -12.817 -0.0179  0.7632  0.6459
    28 C(13)  Bbb     0.0878    11.777     4.202     3.928  0.1448 -0.6372  0.7570
              Bcc     0.1986    26.647     9.508     8.889  0.9893  0.1070 -0.0991
 
              Baa    -0.5268   -70.697   -25.226   -23.582 -0.0212  0.7488  0.6624
    29 C(13)  Bbb     0.1839    24.674     8.804     8.230  0.9967 -0.0363  0.0729
              Bcc     0.3430    46.023    16.422    15.352 -0.0786 -0.6618  0.7456
 
              Baa    -1.1042    79.901    28.511    26.652  0.4964 -0.5675  0.6569
    30 O(17)  Bbb    -0.3673    26.577     9.483     8.865 -0.0208  0.7487  0.6625
              Bcc     1.4715  -106.479   -37.994   -35.518  0.8679  0.3425 -0.3598
 
              Baa    -0.2850  -152.059   -54.258   -50.721  0.7460  0.4387  0.5011
    31 H(1)   Bbb     0.1330    70.978    25.327    23.676 -0.3777 -0.3411  0.8608
              Bcc     0.1520    81.081    28.932    27.046 -0.5485  0.8314  0.0888
 
              Baa    -0.2916  -155.601   -55.522   -51.903  0.4142  0.2441  0.8768
    32 H(1)   Bbb     0.1385    73.912    26.374    24.655 -0.5432  0.8393  0.0229
              Bcc     0.1531    81.689    29.149    27.248  0.7303  0.4857 -0.4803
 
              Baa    -0.3072  -163.910   -58.487   -54.675 -0.4081  0.6132  0.6764
    33 H(1)   Bbb     0.1499    79.991    28.543    26.682  0.5043  0.7690 -0.3929
              Bcc     0.1573    83.919    29.944    27.992  0.7610 -0.1808  0.6231
 
              Baa    -0.3057  -163.119   -58.205   -54.411 -0.4693  0.7280 -0.4998
    34 H(1)   Bbb     0.1490    79.501    28.368    26.519  0.8155  0.1402 -0.5615
              Bcc     0.1567    83.618    29.837    27.892  0.3387  0.6711  0.6595
 
              Baa    -0.3054  -162.962   -58.149   -54.358  0.7453  0.4178  0.5197
    35 H(1)   Bbb     0.1493    79.663    28.426    26.573 -0.4817 -0.2016  0.8529
              Bcc     0.1561    83.299    29.723    27.786 -0.4611  0.8859 -0.0510
 
              Baa    -0.2955  -157.680   -56.264   -52.596 -0.5035  0.7665 -0.3986
    36 H(1)   Bbb     0.1420    75.765    27.035    25.272 -0.6899 -0.0789  0.7196
              Bcc     0.1535    81.915    29.229    27.324  0.5201  0.6373  0.5685
 
              Baa    -0.3004  -160.253   -57.182   -53.455  0.7307  0.4082  0.5472
    37 H(1)   Bbb     0.1453    77.518    27.660    25.857 -0.6600  0.2171  0.7193
              Bcc     0.1551    82.735    29.522    27.597 -0.1748  0.8867 -0.4280
 
              Baa    -0.2988  -159.449   -56.895   -53.187  0.6146  0.7648 -0.1932
    38 H(1)   Bbb     0.1445    77.075    27.502    25.709  0.7887 -0.6006  0.1312
              Bcc     0.1544    82.374    29.393    27.477  0.0156  0.2330  0.9723
 
              Baa    -0.2961  -157.959   -56.364   -52.689  0.3954  0.2695  0.8781
    39 H(1)   Bbb     0.1419    75.698    27.011    25.250  0.7260 -0.6773 -0.1190
              Bcc     0.1542    82.261    29.353    27.439  0.5626  0.6846 -0.4635
 
              Baa    -0.3903  -208.264   -74.314   -69.470 -0.1220 -0.2079  0.9705
    40 H(1)   Bbb     0.1477    78.809    28.121    26.288 -0.5654  0.8182  0.1042
              Bcc     0.2426   129.456    46.193    43.182  0.8157  0.5360  0.2173
 
              Baa    -0.3190  -170.198   -60.731   -56.772 -0.3777  0.7998 -0.4665
    41 H(1)   Bbb     0.1409    75.189    26.829    25.080 -0.4218  0.2999  0.8557
              Bcc     0.1781    95.010    33.902    31.692  0.8243  0.5199  0.2241
 
              Baa    -0.3177  -169.494   -60.480   -56.537 -0.1506 -0.1620  0.9752
    42 H(1)   Bbb     0.1489    79.450    28.350    26.502 -0.5465  0.8357  0.0544
              Bcc     0.1688    90.044    32.130    30.035  0.8238  0.5248  0.2144
 
              Baa    -0.3204  -170.941   -60.996   -57.020 -0.5449  0.6476  0.5327
    43 H(1)   Bbb     0.1457    77.730    27.736    25.928  0.1393 -0.5565  0.8191
              Bcc     0.1747    93.211    33.260    31.092  0.8268  0.5205  0.2131
 
              Baa    -0.3193  -170.365   -60.790   -56.828 -0.3915  0.8048 -0.4461
    44 H(1)   Bbb     0.1498    79.938    28.524    26.664 -0.4023  0.2863  0.8696
              Bcc     0.1695    90.427    32.266    30.163  0.8276  0.5199  0.2117
 
              Baa    -0.3214  -171.467   -61.184   -57.195 -0.1455 -0.1682  0.9750
    45 H(1)   Bbb     0.1425    76.014    27.124    25.356 -0.5418  0.8381  0.0637
              Bcc     0.1789    95.453    34.060    31.840  0.8278  0.5189  0.2131
 
              Baa    -0.3138  -167.448   -59.750   -55.855 -0.4548  0.8683 -0.1981
    46 H(1)   Bbb     0.1449    77.299    27.582    25.784  0.8706  0.4804  0.1066
              Bcc     0.1690    90.149    32.167    30.070 -0.1877  0.1240  0.9744
 
              Baa    -0.3167  -168.990   -60.300   -56.369  0.5197  0.8492 -0.0939
    47 H(1)   Bbb     0.1467    78.251    27.922    26.102  0.8537 -0.5119  0.0955
              Bcc     0.1701    90.739    32.378    30.267 -0.0330  0.1298  0.9910
 
              Baa    -0.3208  -171.178   -61.080   -57.099 -0.4406  0.8844 -0.1538
    48 H(1)   Bbb     0.1475    78.697    28.081    26.250  0.8791  0.4598  0.1255
              Bcc     0.1733    92.481    33.000    30.848 -0.1817  0.0799  0.9801
 
              Baa    -0.3006  -160.366   -57.222   -53.492  0.7866 -0.5691 -0.2397
    49 H(1)   Bbb     0.1429    76.225    27.199    25.426 -0.1524 -0.5550  0.8178
              Bcc     0.1577    84.141    30.024    28.066  0.5984  0.6067  0.5233
 
              Baa    -0.3085  -164.618   -58.740   -54.911  0.3180  0.9310  0.1791
    50 H(1)   Bbb     0.1465    78.148    27.885    26.067 -0.1979 -0.1195  0.9729
              Bcc     0.1621    86.470    30.855    28.843  0.9272 -0.3448  0.1463
 
[...]
 **** Fit      -0.042331
 **** Fit      -0.042291
 **** Fit      -0.042799
 **** Fit      -0.043824
 **** Fit      -0.045323
 **** Fit      -0.047223
 **** Fit      -0.049392
 **** Fit      -0.044447
 **** Fit      -0.043324
 **** Fit      -0.042771
 **** Fit      -0.042810
 **** Fit      -0.043423
 **** Fit      -0.044561
 **** Fit      -0.046128
 **** Fit      -0.047964
 **** Fit      -0.043751
 **** Fit      -0.043282
 **** Fit      -0.043395
 **** Fit      -0.044082
 **** Fit      -0.045255
 **** Fit      -0.046741
 **** Fit      -0.043865
 **** Fit      -0.043918
 **** Fit      -0.044566
 **** Fit      -0.064650
 **** Fit      -0.052923
 **** Fit      -0.055899
 **** Fit      -0.059158
 **** Fit      -0.062351
 **** Fit      -0.065058
 **** Fit      -0.066898
 **** Fit      -0.065164
 **** Fit      -0.062627
 **** Fit      -0.059656
 **** Fit      -0.056579
 **** Fit      -0.048470
 **** Fit      -0.049871
 **** Fit      -0.051696
 **** Fit      -0.053779
 **** Fit      -0.055875
 **** Fit      -0.057686
 **** Fit      -0.058927
 **** Fit      -0.059388
 **** Fit      -0.059001
 **** Fit      -0.057848
 **** Fit      -0.056133
 **** Fit      -0.054104
 **** Fit      -0.051994
 **** Fit      -0.049975
 **** Fit      -0.047068
 **** Fit      -0.047743
 **** Fit      -0.048764
 **** Fit      -0.050023
 **** Fit      -0.051347
 **** Fit      -0.052526
 **** Fit      -0.053349
 **** Fit      -0.053663
 **** Fit      -0.053409
 **** Fit      -0.052634
 **** Fit      -0.051474
 **** Fit      -0.050102
 **** Fit      -0.048688
 **** Fit      -0.047361
 **** Fit      -0.046206
 **** Fit      -0.046089
 **** Fit      -0.046145
 **** Fit      -0.046520
 **** Fit      -0.047173
 **** Fit      -0.047984
 **** Fit      -0.048779
 **** Fit      -0.049370
 **** Fit      -0.049606
 **** Fit      -0.049418
 **** Fit      -0.048840
 **** Fit      -0.047988
 **** Fit      -0.047016
 **** Fit      -0.046071
 **** Fit      -0.045272
 **** Fit      -0.044701
 **** Fit      -0.045696
 **** Fit      -0.045376
 **** Fit      -0.045269
 **** Fit      -0.045422
 **** Fit      -0.045790
 **** Fit      -0.046246
 **** Fit      -0.046624
 **** Fit      -0.046778
 **** Fit      -0.046630
 **** Fit      -0.046205
 **** Fit      -0.045606
 **** Fit      -0.044977
 **** Fit      -0.044452
 **** Fit      -0.044139
 **** Fit      -0.044106
 **** Fit      -0.045344
 **** Fit      -0.044975
 **** Fit      -0.044642
 **** Fit      -0.044486
 **** Fit      -0.044544
 **** Fit      -0.044729
 **** Fit      -0.044883
 **** Fit      -0.044865
 **** Fit      -0.044631
 **** Fit      -0.044258
 **** Fit      -0.043892
 **** Fit      -0.043684
 **** Fit      -0.043737
 **** Fit      -0.044074
 **** Fit      -0.044516
 **** Fit      -0.044519
 **** Fit      -0.044243
 **** Fit      -0.043943
 **** Fit      -0.043810
 **** Fit      -0.043804
 **** Fit      -0.043748
 **** Fit      -0.043559
 **** Fit      -0.043364
 **** Fit      -0.043374
 **** Fit      -0.043685
 **** Fit      -0.044166
 **** Fit      -0.043734
 **** Fit      -0.043657
 **** Fit      -0.043404
 **** Fit      -0.043256
 **** Fit      -0.043172
 **** Fit      -0.043396
 **** Fit      -0.043283
 **** Fit      -0.075960
 **** Fit      -0.080545
 **** Fit      -0.076308
 **** Fit      -0.072079
 **** Fit      -0.072022
 **** Fit      -0.076132
 **** Fit      -0.080434
 **** Fit      -0.085823
 **** Fit      -0.082062
 **** Fit      -0.077174
 **** Fit      -0.072340
 **** Fit      -0.068707
 **** Fit      -0.067334
 **** Fit      -0.068675
 **** Fit      -0.072177
 **** Fit      -0.076840
 **** Fit      -0.081697
 **** Fit      -0.085597
 **** Fit      -0.083458
 **** Fit      -0.078564
 **** Fit      -0.073693
 **** Fit      -0.069266
 **** Fit      -0.065775
 **** Fit      -0.063815
 **** Fit      -0.063863
 **** Fit      -0.065870
 **** Fit      -0.069274
 **** Fit      -0.073472
 **** Fit      -0.078103
 **** Fit      -0.082938
 **** Fit      -0.084637
 **** Fit      -0.079669
 **** Fit      -0.074696
 **** Fit      -0.069952
 **** Fit      -0.065670
 **** Fit      -0.062228
 **** Fit      -0.060207
 **** Fit      -0.060148
 **** Fit      -0.062073
 **** Fit      -0.065407
 **** Fit      -0.069456
 **** Fit      -0.073812
 **** Fit      -0.078376
 **** Fit      -0.080462
 **** Fit      -0.075324
 **** Fit      -0.070326
 **** Fit      -0.065543
 **** Fit      -0.061179
 **** Fit      -0.057770
 **** Fit      -0.056162
 **** Fit      -0.056990
 **** Fit      -0.059995
 **** Fit      -0.064223
 **** Fit      -0.068800
 **** Fit      -0.073324
 **** Fit      -0.077796
 **** Fit      -0.081882
 **** Fit      -0.076701
 **** Fit      -0.071611
 **** Fit      -0.066529
 **** Fit      -0.061444
 **** Fit      -0.056683
 **** Fit      -0.053149
 **** Fit      -0.074125
 **** Fit      -0.078400
 **** Fit      -0.087342
 **** Fit      -0.081830
 **** Fit      -0.076502
 **** Fit      -0.071184
 **** Fit      -0.065585
 **** Fit      -0.059559
 **** Fit      -0.082421
 **** Fit      -0.077196
 **** Fit      -0.071797
 **** Fit      -0.082645
 **** Fit      -0.100530
 **** Fit      -0.106756
 **** Fit      -0.101529
 **** Fit      -0.096237
 **** Fit      -0.095924
 **** Fit      -0.100387
 **** Fit      -0.105785
 **** Fit      -0.115115
 **** Fit      -0.110239
 **** Fit      -0.103343
 **** Fit      -0.097065
 **** Fit      -0.092857
 **** Fit      -0.091296
 **** Fit      -0.092555
 **** Fit      -0.096186
 **** Fit      -0.101160
 **** Fit      -0.106685
 **** Fit      -0.112062
 **** Fit      -0.115623
 **** Fit      -0.126352
 **** Fit      -0.121143
 **** Fit      -0.113677
 **** Fit      -0.105937
 **** Fit      -0.099195
 **** Fit      -0.093969
 **** Fit      -0.090368
 **** Fit      -0.088424
 **** Fit      -0.088284
 **** Fit      -0.090101
 **** Fit      -0.113546
 **** Fit      -0.119420
 **** Fit      -0.124709
 **** Fit      -0.127567
 **** Fit      -0.126052
 **** Fit      -0.116545
 **** Fit      -0.107930
 **** Fit      -0.100770
 **** Fit      -0.095143
 **** Fit      -0.090913
 **** Fit      -0.087912
 **** Fit      -0.086087
 **** Fit      -0.126652
 **** Fit      -0.134054
 **** Fit      -0.129181
 **** Fit      -0.118131
 **** Fit      -0.108933
 **** Fit      -0.101593
 **** Fit      -0.095882
 **** Fit      -0.091501
 **** Fit      -0.088160
 **** Fit      -0.085655
 **** Fit      -0.131356
 **** Fit      -0.119618
 **** Fit      -0.110299
 **** Fit      -0.103027
 **** Fit      -0.097401
 **** Fit      -0.093039
 **** Fit      -0.089596
 **** Fit      -0.086769
 **** Fit      -0.129089
 **** Fit      -0.117636
 **** Fit      -0.108920
 **** Fit      -0.102306
 **** Fit      -0.097275
 **** Fit      -0.093383
 **** Fit      -0.090227
 **** Fit      -0.126267
 **** Fit      -0.115986
 **** Fit      -0.108329
 **** Fit      -0.102619
 **** Fit      -0.098333
 **** Fit      -0.095027
 **** Fit      -0.133583
 **** Fit      -0.122075
 **** Fit      -0.113689
 **** Fit      -0.107575
 **** Fit      -0.103135
 **** Fit      -0.136127
 **** Fit      -0.124567
 **** Fit      -0.116396
 **** Fit      -0.112173
 **** Fit      -0.119022
 **** Fit      -0.128662
 **** Fit      -0.103810
 **** Fit      -0.108672
 **** Fit      -0.115366
 **** Fit      -0.124441
 **** Fit      -0.095789
 **** Fit      -0.098983
 **** Fit      -0.103351
 **** Fit      -0.109239
 **** Fit      -0.117067
 **** Fit      -0.127356
 **** Fit      -0.091401
 **** Fit      -0.094205
 **** Fit      -0.097919
 **** Fit      -0.102860
 **** Fit      -0.109353
 **** Fit      -0.117750
 **** Fit      -0.128396
 **** Fit      -0.088124
 **** Fit      -0.090567
 **** Fit      -0.093696
 **** Fit      -0.097795
 **** Fit      -0.103121
 **** Fit      -0.109906
 **** Fit      -0.118317
 **** Fit      -0.128357
 **** Fit      -0.135487
 **** Fit      -0.086820
 **** Fit      -0.089140
 **** Fit      -0.092224
 **** Fit      -0.096319
 **** Fit      -0.101633
 **** Fit      -0.108288
 **** Fit      -0.116232
 **** Fit      -0.125078
 **** Fit      -0.126591
 **** Fit      -0.129554
 **** Fit      -0.129284
 **** Fit      -0.126360
 **** Fit      -0.122130
 **** Fit      -0.086711
 **** Fit      -0.088665
 **** Fit      -0.091567
 **** Fit      -0.095557
 **** Fit      -0.100729
 **** Fit      -0.107016
 **** Fit      -0.114043
 **** Fit      -0.120987
 **** Fit      -0.115749
 **** Fit      -0.117984
 **** Fit      -0.117407
 **** Fit      -0.114776
 **** Fit      -0.087712
 **** Fit      -0.088608
 **** Fit      -0.090907
 **** Fit      -0.094539
 **** Fit      -0.099424
 **** Fit      -0.105212
 **** Fit      -0.111080
 **** Fit      -0.107721
 **** Fit      -0.109349
 **** Fit      -0.107951
 **** Fit      -0.104743
 **** Fit      -0.092559
 **** Fit      -0.090429
 **** Fit      -0.090776
 **** Fit      -0.093442
 **** Fit      -0.097960
 **** Fit      -0.103325
 **** Fit      -0.101816
 **** Fit      -0.102251
 **** Fit      -0.098677
 **** Fit      -0.094565
 **** Fit      -0.093748
 **** Fit      -0.097327
 **** Fit      -0.097550
 **** Fit      -0.075747
 **** Fit      -0.080815
 **** Fit      -0.068791
 **** Fit      -0.072734
 **** Fit      -0.077095
 **** Fit      -0.081862
 **** Fit      -0.066702
 **** Fit      -0.069693
 **** Fit      -0.073310
 **** Fit      -0.077432
 **** Fit      -0.081980
 **** Fit      -0.086821
 **** Fit      -0.064848
 **** Fit      -0.065798
 **** Fit      -0.067803
 **** Fit      -0.070607
 **** Fit      -0.074032
 **** Fit      -0.077950
 **** Fit      -0.082228
 **** Fit      -0.082897
 **** Fit      -0.079593
 **** Fit      -0.076624
 **** Fit      -0.068426
 **** Fit      -0.066520
 **** Fit      -0.065719
 **** Fit      -0.066156
 **** Fit      -0.067717
 **** Fit      -0.070201
 **** Fit      -0.073416
 **** Fit      -0.077191
 **** Fit      -0.081342
 **** Fit      -0.085639
 **** Fit      -0.082057
 **** Fit      -0.078521
 **** Fit      -0.075340
 **** Fit      -0.072499
 **** Fit      -0.070008
 **** Fit      -0.068047
 **** Fit      -0.066943
 **** Fit      -0.066947
 **** Fit      -0.068100
 **** Fit      -0.070275
 **** Fit      -0.073280
 **** Fit      -0.076899
 **** Fit      -0.080895
 **** Fit      -0.085019
 **** Fit      -0.087674
 **** Fit      -0.084297
 **** Fit      -0.080630
 **** Fit      -0.077057
 **** Fit      -0.073852
 **** Fit      -0.071181
 **** Fit      -0.069240
 **** Fit      -0.068314
 **** Fit      -0.068640
 **** Fit      -0.070238
 **** Fit      -0.072927
 **** Fit      -0.076405
 **** Fit      -0.080301
 **** Fit      -0.084208
 **** Fit      -0.083095
 **** Fit      -0.084945
 **** Fit      -0.084528
 **** Fit      -0.082088
 **** Fit      -0.078564
 **** Fit      -0.074967
 **** Fit      -0.072064
 **** Fit      -0.070439
 **** Fit      -0.070550
 **** Fit      -0.072478
 **** Fit      -0.075791
 **** Fit      -0.079676
 **** Fit      -0.079240
 **** Fit      -0.079927
 **** Fit      -0.077069
 **** Fit      -0.073725
 **** Fit      -0.073019
 **** Fit      -0.075696
 **** Fit      -0.076119
 **** Fit      -0.158004
 **** Fit      -0.162254
 **** Fit      -0.146390
 **** Fit      -0.148152
 **** Fit      -0.150300
 **** Fit      -0.152851
 **** Fit      -0.155865
 **** Fit      -0.159440
 **** Fit      -0.163727
 **** Fit      -0.168962
 **** Fit      -0.169235
 **** Fit      -0.143107
 **** Fit      -0.144191
 **** Fit      -0.145595
 **** Fit      -0.147275
 **** Fit      -0.149228
 **** Fit      -0.151474
 **** Fit      -0.154050
 **** Fit      -0.157013
 **** Fit      -0.160442
 **** Fit      -0.164458
 **** Fit      -0.164159
 **** Fit      -0.168299
 **** Fit      -0.173137
 **** Fit      -0.140968
 **** Fit      -0.141429
 **** Fit      -0.142277
 **** Fit      -0.143392
 **** Fit      -0.144725
 **** Fit      -0.146260
 **** Fit      -0.148003
 **** Fit      -0.149966
 **** Fit      -0.152171
 **** Fit      -0.154645
 **** Fit      -0.157426
 **** Fit      -0.160571
 **** Fit      -0.159988
 **** Fit      -0.163134
 **** Fit      -0.166640
 **** Fit      -0.170560
 **** Fit      -0.139737
 **** Fit      -0.140317
 **** Fit      -0.141182
 **** Fit      -0.142246
 **** Fit      -0.143477
 **** Fit      -0.144871
 **** Fit      -0.146434
 **** Fit      -0.148177
 **** Fit      -0.150107
 **** Fit      -0.152236
 **** Fit      -0.154577
 **** Fit      -0.157150
 **** Fit      -0.156493
 **** Fit      -0.158898
 **** Fit      -0.161453
 **** Fit      -0.164156
 **** Fit      -0.166981
 **** Fit      -0.169860
 **** Fit      -0.138115
 **** Fit      -0.138577
 **** Fit      -0.139320
 **** Fit      -0.140226
 **** Fit      -0.141253
 **** Fit      -0.142398
 **** Fit      -0.143667
 **** Fit      -0.145070
 **** Fit      -0.146616
 **** Fit      -0.148306
 **** Fit      -0.150140
 **** Fit      -0.152117
 **** Fit      -0.154234
 **** Fit      -0.153501
 **** Fit      -0.155401
 **** Fit      -0.157327
 **** Fit      -0.159251
 **** Fit      -0.161123
 **** Fit      -0.162866
 **** Fit      -0.164355
 **** Fit      -0.137229
 **** Fit      -0.138157
 **** Fit      -0.139127
 **** Fit      -0.140142
 **** Fit      -0.141222
 **** Fit      -0.142390
 **** Fit      -0.143663
 **** Fit      -0.145049
 **** Fit      -0.146550
 **** Fit      -0.148159
 **** Fit      -0.149863
 **** Fit      -0.151650
 **** Fit      -0.150896
 **** Fit      -0.152443
 **** Fit      -0.153940
 **** Fit      -0.155344
 **** Fit      -0.156598
 **** Fit      -0.157624
 **** Fit      -0.158319
 **** Fit      -0.158558
 **** Fit      -0.135437
 **** Fit      -0.136708
 **** Fit      -0.137838
 **** Fit      -0.138903
 **** Fit      -0.139963
 **** Fit      -0.141064
 **** Fit      -0.142238
 **** Fit      -0.143499
 **** Fit      -0.144852
 **** Fit      -0.146288
 **** Fit      -0.147790
 **** Fit      -0.149335
 **** Fit      -0.148602
 **** Fit      -0.149867
 **** Fit      -0.151036
 **** Fit      -0.152062
 **** Fit      -0.152890
 **** Fit      -0.153454
 **** Fit      -0.153681
 **** Fit      -0.153494
 **** Fit      -0.152836
 **** Fit      -0.135146
 **** Fit      -0.136552
 **** Fit      -0.137735
 **** Fit      -0.138819
 **** Fit      -0.139883
 **** Fit      -0.140977
 **** Fit      -0.142130
 **** Fit      -0.143348
 **** Fit      -0.144627
 **** Fit      -0.145947
 **** Fit      -0.147283
 **** Fit      -0.146571
 **** Fit      -0.147659
 **** Fit      -0.148612
 **** Fit      -0.149379
 **** Fit      -0.149902
 **** Fit      -0.150126
 **** Fit      -0.149997
 **** Fit      -0.149483
 **** Fit      -0.148595
 **** Fit      -0.134402
 **** Fit      -0.136014
 **** Fit      -0.137302
 **** Fit      -0.138440
 **** Fit      -0.139533
 **** Fit      -0.140638
 **** Fit      -0.141783
 **** Fit      -0.142971
 **** Fit      -0.144186
 **** Fit      -0.145399
 **** Fit      -0.144774
 **** Fit      -0.145734
 **** Fit      -0.146521
 **** Fit      -0.147079
 **** Fit      -0.147351
 **** Fit      -0.147295
 **** Fit      -0.146890
 **** Fit      -0.146162
 **** Fit      -0.145204
 **** Fit      -0.144192
 **** Fit      -0.133459
 **** Fit      -0.135352
 **** Fit      -0.136788
 **** Fit      -0.138008
 **** Fit      -0.139145
 **** Fit      -0.140271
 **** Fit      -0.141413
 **** Fit      -0.142566
 **** Fit      -0.143701
 **** Fit      -0.143189
 **** Fit      -0.144033
 **** Fit      -0.144672
 **** Fit      -0.145047
 **** Fit      -0.145112
 **** Fit      -0.144851
 **** Fit      -0.144290
 **** Fit      -0.143517
 **** Fit      -0.142680
 **** Fit      -0.141952
 **** Fit      -0.141435
 **** Fit      -0.132884
 **** Fit      -0.134936
 **** Fit      -0.136468
 **** Fit      -0.137740
 **** Fit      -0.138902
 **** Fit      -0.140028
 **** Fit      -0.141134
 **** Fit      -0.142203
 **** Fit      -0.141789
 **** Fit      -0.142551
 **** Fit      -0.143055
 **** Fit      -0.143242
 **** Fit      -0.143087
 **** Fit      -0.142619
 **** Fit      -0.141927
 **** Fit      -0.141135
 **** Fit      -0.140317
 **** Fit      -0.134373
 **** Fit      -0.136063
 **** Fit      -0.137433
 **** Fit      -0.138647
 **** Fit      -0.139782
 **** Fit      -0.140843
 **** Fit      -0.140542
 **** Fit      -0.141249
 **** Fit      -0.141586
 **** Fit      -0.141503
 **** Fit      -0.141025
 **** Fit      -0.140242
 **** Fit      -0.139200
 **** Fit      -0.137703
 **** Fit      -0.133604
 **** Fit      -0.135528
 **** Fit      -0.137076
 **** Fit      -0.138397
 **** Fit      -0.139562
 **** Fit      -0.139397
 **** Fit      -0.140025
 **** Fit      -0.140049
 **** Fit      -0.139450
 **** Fit      -0.138274
 **** Fit      -0.136419
 **** Fit      -0.135211
 **** Fit      -0.136888
 **** Fit      -0.138304
 **** Fit      -0.138286
 **** Fit      -0.138620
 **** Fit      -0.137573
 **** Fit      -0.135757
 **** Fit      -0.135429
 **** Fit      -0.136892
 **** Fit      -0.137114
 -----------------------------------------------------------------
 Leave Link  602 at Thu Sep 24 02:31:47 2015, MaxMem=    6291456 cpu:      14.9

 Test job not archived.
 1\1\GINC-COMPUTE-2-8\FOpt\RHF\6-31G(d)\C26H25N2O3(1-)\SHUNZHOU\24-Sep-
 2015\0\\#HF/6-31G* SCF=tight Test Pop=MK iop(6/33=2) iop(6/42=6) opt\\
 remark line goes here\\-1,1\C,15.8142178017,6.9691109528,9.1478035088\
 C,14.9664557507,6.0489088035,10.0274727616\C,14.0081598445,5.156512974
 ,9.2330521877\C,14.732443996,4.1946824462,8.2686330042\C,13.981225704,
 2.8648376131,8.1093015755\N,14.606748146,2.0817224551,7.072126782\C,13
 .9857953223,1.0246522162,6.4097847399\C,12.6263934608,0.7424085657,6.5
 205299021\C,12.0661511907,-0.2956759,5.791294386\C,12.8331915074,-1.07
 86546214,4.9498829784\C,14.1901777171,-0.8068112154,4.8466970874\C,14.
 7588636362,0.2285008452,5.5587371512\C,13.9350612384,2.2399568117,9.49
 5768314\C,14.3639319369,0.9625444521,9.8068398722\C,14.398088973,0.502
 83419,11.1259071267\C,14.0085893474,1.3852260364,12.129678014\C,13.591
 9665119,2.6719140432,11.8329118704\C,13.5270009392,3.0939694601,10.517
 4050712\N,13.119963645,4.4042491381,10.1387703178\C,11.930031015,4.978
 0965069,10.4784900726\C,10.8982495537,4.1447736811,11.2138660001\O,11.
 678782946,6.1208574859,10.1899920919\C,14.8607057841,-0.8740587338,11.
 4514273019\C,15.9707618227,-1.4280110833,10.8168416122\C,16.4059799918
 ,-2.7032703564,11.1342518071\C,15.7497711606,-3.4689401599,12.08978127
 21\C,14.6402868068,-2.9184032342,12.7190114944\C,14.2014953022,-1.6424
 791406,12.4090309657\C,16.2427489609,-4.8938366744,12.4453795494\O,17.
 2366437373,-5.2670770026,11.822942138\H,13.3557728005,5.7922997787,8.6
 539495\H,12.9741426115,3.0974764487,7.7829620334\H,16.4323782226,7.618
 8814174,9.7594887398\H,16.4766925391,6.412674799,8.4920804177\H,15.185
 7006373,7.6020727511,8.5272613539\H,14.3723260072,6.6523812063,10.7043
 422951\H,15.6112776321,5.4208730167,10.6377399091\H,14.8419983357,4.66
 77196867,7.2995779264\H,15.7323689111,3.9743134954,8.634812458\H,15.58
 45027623,1.9431659299,7.2097069531\H,12.0018945636,1.307721849,7.18473
 42017\H,11.014640413,-0.4962185757,5.9005433783\H,12.392025315,-1.8884
 66794,4.3979107791\H,14.8127386449,-1.4070337783,4.2065721916\H,15.811
 5517427,0.4321136984,5.4604235499\H,14.6582389032,0.2954761077,9.01949
 15732\H,14.0667611883,1.0745456153,13.1564129626\H,13.3364349179,3.349
 4817332,12.6274245044\H,10.905236793,3.1038399371,10.9231813129\H,11.0
 670913468,4.1960377022,12.2834823318\H,9.9335267754,4.5851922854,11.00
 48611564\H,16.5129107094,-0.8473765701,10.0891280453\H,17.2666567336,-
 3.1298294898,10.6554435851\H,14.130845231,-3.5167972186,13.4500454705\
 H,13.3258462755,-1.2474816496,12.8967845687\O,15.5785562369,-5.4706039
 375,13.3060278452\\Version=AM64L-G03RevD.02\State=1-A\HF=-1332.6973266
 \RMSD=8.257e-09\RMSF=4.450e-06\Thermal=0.\Dipole=-2.7506039,9.2490819,
 -4.362871\PG=C01 [X(C26H25N2O3)]\\@


 ALL MEN WHO EXPLORE
 DEPLORE
 THAT FRUSTRATING HURDLE
 THE GIRDLE.

         -- COLIN FLETCHER
 Job cpu time:  0 days  8 hours 17 minutes  3.8 seconds.
 File lengths (MBytes):  RWF=    176 Int=      0 D2E=      0 Chk=     25 Scr=      1
 Normal termination of Gaussian 03 at Thu Sep 24 02:31:48 2015.
