 Entering Gaussian System, Link 0=g03
 Initial command:
 /share/apps//g03/l1.exe /state/partition1/mmpbsa.r19183/Gau-19190.inp -scrdir=/state/partition1/mmpbsa.r19183/
 Entering Link 1 = /share/apps//g03/l1.exe PID=     19191.
  
 Copyright (c) 1988,1990,1992,1993,1995,1998,2003,2004, Gaussian, Inc.
                  All Rights Reserved.
  
 This is the Gaussian(R) 03 program.  It is based on the
 the Gaussian(R) 98 system (copyright 1998, Gaussian, Inc.),
 the Gaussian(R) 94 system (copyright 1995, Gaussian, Inc.),
 the Gaussian 92(TM) system (copyright 1992, Gaussian, Inc.),
 the Gaussian 90(TM) system (copyright 1990, Gaussian, Inc.),
 the Gaussian 88(TM) system (copyright 1988, Gaussian, Inc.),
 the Gaussian 86(TM) system (copyright 1986, Carnegie Mellon
 University), and the Gaussian 82(TM) system (copyright 1983,
 Carnegie Mellon University). Gaussian is a federally registered
 trademark of Gaussian, Inc.
  
 This software contains proprietary and confidential information,
 including trade secrets, belonging to Gaussian, Inc.
  
 This software is provided under written license and may be
 used, copied, transmitted, or stored only in accord with that
 written license.
  
 The following legend is applicable only to US Government
 contracts under FAR:
  
                    RESTRICTED RIGHTS LEGEND
  
 Use, reproduction and disclosure by the US Government is
 subject to restrictions as set forth in subparagraphs (a)
 and (c) of the Commercial Computer Software - Restricted
 Rights clause in FAR 52.227-19.
  
 Gaussian, Inc.
 340 Quinnipiac St., Bldg. 40, Wallingford CT 06492
  
  
 ---------------------------------------------------------------
 Warning -- This program may not be used in any manner that
 competes with the business of Gaussian, Inc. or will provide
 assistance to any competitor of Gaussian, Inc.  The licensee
 of this program is prohibited from giving any competitor of
 Gaussian, Inc. access to this program.  By using this program,
 the user acknowledges that Gaussian, Inc. is engaged in the
 business of creating and licensing software in the field of
 computational chemistry and represents and warrants to the
 licensee that it is not a competitor of Gaussian, Inc. and that
 it will not use this program in any manner prohibited above.
 ---------------------------------------------------------------
  

 Cite this work as:
 Gaussian 03, Revision D.02,
 M. J. Frisch, G. W. Trucks, H. B. Schlegel, G. E. Scuseria, 
 M. A. Robb, J. R. Cheeseman, J. A. Montgomery, Jr., T. Vreven, 
 K. N. Kudin, J. C. Burant, J. M. Millam, S. S. Iyengar, J. Tomasi, 
 V. Barone, B. Mennucci, M. Cossi, G. Scalmani, N. Rega, 
 G. A. Petersson, H. Nakatsuji, M. Hada, M. Ehara, K. Toyota, 
 R. Fukuda, J. Hasegawa, M. Ishida, T. Nakajima, Y. Honda, O. Kitao, 
 H. Nakai, M. Klene, X. Li, J. E. Knox, H. P. Hratchian, J. B. Cross, 
 V. Bakken, C. Adamo, J. Jaramillo, R. Gomperts, R. E. Stratmann, 
 O. Yazyev, A. J. Austin, R. Cammi, C. Pomelli, J. W. Ochterski, 
 P. Y. Ayala, K. Morokuma, G. A. Voth, P. Salvador, J. J. Dannenberg, 
 V. G. Zakrzewski, S. Dapprich, A. D. Daniels, M. C. Strain, 
 O. Farkas, D. K. Malick, A. D. Rabuck, K. Raghavachari, 
 J. B. Foresman, J. V. Ortiz, Q. Cui, A. G. Baboul, S. Clifford, 
 J. Cioslowski, B. B. Stefanov, G. Liu, A. Liashenko, P. Piskorz, 
 I. Komaromi, R. L. Martin, D. J. Fox, T. Keith, M. A. Al-Laham, 
 C. Y. Peng, A. Nanayakkara, M. Challacombe, P. M. W. Gill, 
 B. Johnson, W. Chen, M. W. Wong, C. Gonzalez, and J. A. Pople, 
 Gaussian, Inc., Wallingford CT, 2004.
 
 ******************************************
 Gaussian 03:  AM64L-G03RevD.02  1-Mar-2006
                23-Sep-2015 
 ******************************************
 %chk=molecule
 ------------------------------------------------------------
 #HF/6-31G* SCF=tight Test Pop=MK iop(6/33=2) iop(6/42=6) opt
 ------------------------------------------------------------
 1/18=20,38=1/1,3;
 2/9=110,17=6,18=5,40=1/2;
 3/5=1,6=6,7=1,11=9,16=1,25=1,30=1/1,2,3;
 4//1;
 5/5=2,32=2,38=5/2;
 6/7=2,8=2,9=2,10=2,15=8,20=1,28=1,33=2,42=6/1,2;
 7//1,2,3,16;
 1/18=20/3(3);
 2/9=110/2;
 6/7=2,8=2,9=2,10=2,15=8,19=2,20=1,28=1,33=2,42=6/1,2;
 99//99;
 2/9=110/2;
 3/5=1,6=6,7=1,11=9,16=1,25=1,30=1/1,2,3;
 4/5=5,16=3/1;
 5/5=2,32=2,38=5/2;
 7//1,2,3,16;
 1/18=20/3(-5);
 2/9=110/2;
 6/7=2,8=2,9=2,10=2,15=8,19=2,20=1,28=1,33=2,42=6/1,2;
 99/9=1/99;
 ---------------------
 remark line goes here
 ---------------------
 Symbolic Z-matrix:
 Charge =  1 Multiplicity = 1
 C                     14.907    6.245     9.857 
 C                     13.962    5.21      9.216 
 C                     14.74     4.27      8.257 
 C                     14.082    2.891     8.12 
 N                     14.777    2.086     7.118 
 C                     14.176    0.999     6.464 
 C                     14.922    0.326     5.474 
 C                     14.373   -0.773     4.785 
 C                     13.069   -1.212     5.082 
 C                     12.317   -0.549     6.069 
 C                     12.866    0.551     6.758 
 C                     14.001    2.297     9.523 
 C                     14.393    0.97      9.814 
 C                     14.367    0.466     11.133 
 C                     13.958    1.333     12.169 
 C                     13.57     2.658     11.896 
 C                     13.559    3.142     10.567 
 N                     13.174    4.489     10.252 
 C                     12.02     5.06      10.707 
 C                     10.986    4.227     11.47 
 O                     11.732    6.244     10.497 
 C                     14.773   -0.925     11.424 
 C                     14.087   -1.693     12.392 
 C                     14.469   -3.02      12.672 
 C                     15.553   -3.606     11.987 
 C                     15.968   -5.04      12.291 
 C                     16.871   -6.554     14.01 
 C                     17.606   -6.649     15.361 
 C                     18.994   -6.        15.283 
 C                     18.867   -4.556     14.778 
 C                     18.106   -4.496     13.439 
 C                     16.242   -2.852     11.015 
 C                     15.854   -1.526     10.74 
 H                     13.26     5.748     8.575 
 H                     13.062    3.057     7.772 
 H                     15.465    6.79      9.095 
 H                     14.36     6.982     10.446 
 H                     15.63     5.765     10.518 
 H                     14.838    4.75      7.282 
 H                     15.757    4.133     8.63 
 H                     15.719    2.363     6.858 
 H                     15.925    0.646     5.231 
 H                     14.955   -1.28      4.028 
 H                     12.647   -2.057     4.554 
 H                     11.316   -0.885     6.303 
 H                     12.262    1.029     7.515 
 H                     14.725    0.322     9.017 
 H                     13.955    0.989     13.194 
 H                     13.294    3.297     12.721 
 H                     10.918    3.211     11.082 
 H                     11.225    4.19      12.532 
 H                     9.997     4.675     11.372 
 H                     13.248   -1.268     12.924 
 H                     13.919   -3.583     13.414 
 H                     15.059   -5.636     12.384 
 H                     16.522   -5.461     11.45 
 H                     17.39    -7.155     13.262 
 H                     15.873   -6.982     14.116 
 H                     17.014   -6.165     16.139 
 H                     17.7     -7.694     15.657 
 H                     19.476   -6.018     16.261 
 H                     19.635   -6.573     14.611 
 H                     18.352   -3.948     15.523 
 H                     19.858   -4.116     14.659 
 H                     18.692   -4.979     12.656 
 H                     17.999   -3.451     13.147 
 H                     17.074   -3.283     10.475 
 H                     16.404   -0.965     9.997 
 N                     16.771   -5.148     13.536 
 H                     16.249   -4.645     14.237 
 

 GradGradGradGradGradGradGradGradGradGradGradGradGradGradGradGradGradGrad
 Berny optimization.
 Initialization pass.
                           ----------------------------
                           !    Initial Parameters    !
                           ! (Angstroms and Degrees)  !
 --------------------------                            --------------------------
 ! Name  Definition              Value          Derivative Info.                !
 --------------------------------------------------------------------------------
 ! R1    R(1,2)                  1.5411         estimate D2E/DX2                !
 ! R2    R(1,36)                 1.0904         estimate D2E/DX2                !
 ! R3    R(1,37)                 1.0905         estimate D2E/DX2                !
 ! R4    R(1,38)                 1.0909         estimate D2E/DX2                !
 ! R5    R(2,3)                  1.552          estimate D2E/DX2                !
 ! R6    R(2,18)                 1.488          estimate D2E/DX2                !
 ! R7    R(2,34)                 1.0923         estimate D2E/DX2                !
 ! R8    R(3,4)                  1.5341         estimate D2E/DX2                !
 ! R9    R(3,39)                 1.0912         estimate D2E/DX2                !
 ! R10   R(3,40)                 1.0919         estimate D2E/DX2                !
 ! R11   R(4,5)                  1.4612         estimate D2E/DX2                !
 ! R12   R(4,12)                 1.5257         estimate D2E/DX2                !
 ! R13   R(4,35)                 1.0904         estimate D2E/DX2                !
 ! R14   R(5,6)                  1.4037         estimate D2E/DX2                !
 ! R15   R(5,41)                 1.0157         estimate D2E/DX2                !
 ! R16   R(6,7)                  1.4105         estimate D2E/DX2                !
 ! R17   R(6,11)                 1.4154         estimate D2E/DX2                !
 ! R18   R(7,8)                  1.4085         estimate D2E/DX2                !
 ! R19   R(7,42)                 1.0805         estimate D2E/DX2                !
 ! R20   R(8,9)                  1.4076         estimate D2E/DX2                !
 ! R21   R(8,43)                 1.0811         estimate D2E/DX2                !
 ! R22   R(9,10)                 1.4069         estimate D2E/DX2                !
 ! R23   R(9,44)                 1.0821         estimate D2E/DX2                !
 ! R24   R(10,11)                1.4093         estimate D2E/DX2                !
 ! R25   R(10,45)                1.0815         estimate D2E/DX2                !
 ! R26   R(11,46)                1.08           estimate D2E/DX2                !
 ! R27   R(12,13)                1.414          estimate D2E/DX2                !
 ! R28   R(12,17)                1.414          estimate D2E/DX2                !
 ! R29   R(13,14)                1.4123         estimate D2E/DX2                !
 ! R30   R(13,47)                1.0795         estimate D2E/DX2                !
 ! R31   R(14,15)                1.4115         estimate D2E/DX2                !
 ! R32   R(14,22)                1.478          estimate D2E/DX2                !
 ! R33   R(15,16)                1.4074         estimate D2E/DX2                !
 ! R34   R(15,48)                1.0812         estimate D2E/DX2                !
 ! R35   R(16,17)                1.4144         estimate D2E/DX2                !
 ! R36   R(16,49)                1.0794         estimate D2E/DX2                !
 ! R37   R(17,18)                1.4359         estimate D2E/DX2                !
 ! R38   R(18,19)                1.3656         estimate D2E/DX2                !
 ! R39   R(19,20)                1.5314         estimate D2E/DX2                !
 ! R40   R(19,21)                1.2365         estimate D2E/DX2                !
 ! R41   R(20,50)                1.0897         estimate D2E/DX2                !
 ! R42   R(20,51)                1.0892         estimate D2E/DX2                !
 ! R43   R(20,52)                1.0902         estimate D2E/DX2                !
 ! R44   R(22,23)                1.4133         estimate D2E/DX2                !
 ! R45   R(22,33)                1.4134         estimate D2E/DX2                !
 ! R46   R(23,24)                1.409          estimate D2E/DX2                !
 ! R47   R(23,53)                1.0805         estimate D2E/DX2                !
 ! R48   R(24,25)                1.4098         estimate D2E/DX2                !
 ! R49   R(24,54)                1.0817         estimate D2E/DX2                !
 ! R50   R(25,26)                1.5235         estimate D2E/DX2                !
 ! R51   R(25,32)                1.41           estimate D2E/DX2                !
 ! R52   R(26,55)                1.0909         estimate D2E/DX2                !
 ! R53   R(26,56)                1.0915         estimate D2E/DX2                !
 ! R54   R(26,69)                1.4854         estimate D2E/DX2                !
 ! R55   R(27,28)                1.5409         estimate D2E/DX2                !
 ! R56   R(27,57)                1.0909         estimate D2E/DX2                !
 ! R57   R(27,58)                1.0911         estimate D2E/DX2                !
 ! R58   R(27,69)                1.4871         estimate D2E/DX2                !
 ! R59   R(28,29)                1.5342         estimate D2E/DX2                !
 ! R60   R(28,59)                1.0909         estimate D2E/DX2                !
 ! R61   R(28,60)                1.0902         estimate D2E/DX2                !
 ! R62   R(29,30)                1.535          estimate D2E/DX2                !
 ! R63   R(29,61)                1.0905         estimate D2E/DX2                !
 ! R64   R(29,62)                1.0912         estimate D2E/DX2                !
 ! R65   R(30,31)                1.5413         estimate D2E/DX2                !
 ! R66   R(30,63)                1.0908         estimate D2E/DX2                !
 ! R67   R(30,64)                1.0908         estimate D2E/DX2                !
 ! R68   R(31,65)                1.0908         estimate D2E/DX2                !
 ! R69   R(31,66)                1.0903         estimate D2E/DX2                !
 ! R70   R(31,69)                1.4889         estimate D2E/DX2                !
 ! R71   R(32,33)                1.4087         estimate D2E/DX2                !
 ! R72   R(32,67)                1.0815         estimate D2E/DX2                !
 ! R73   R(33,68)                1.0813         estimate D2E/DX2                !
 ! R74   R(69,70)                1.0084         estimate D2E/DX2                !
 ! A1    A(2,1,36)             111.0257         estimate D2E/DX2                !
 ! A2    A(2,1,37)             111.7733         estimate D2E/DX2                !
 ! A3    A(2,1,38)             111.2791         estimate D2E/DX2                !
 ! A4    A(36,1,37)            107.237          estimate D2E/DX2                !
 ! A5    A(36,1,38)            107.7095         estimate D2E/DX2                !
 ! A6    A(37,1,38)            107.6096         estimate D2E/DX2                !
 ! A7    A(1,2,3)              110.8786         estimate D2E/DX2                !
 ! A8    A(1,2,18)             111.1342         estimate D2E/DX2                !
 ! A9    A(1,2,34)             107.9013         estimate D2E/DX2                !
 ! A10   A(3,2,18)             113.7173         estimate D2E/DX2                !
 ! A11   A(3,2,34)             104.9442         estimate D2E/DX2                !
 ! A12   A(18,2,34)            107.872          estimate D2E/DX2                !
 ! A13   A(2,3,4)              112.6205         estimate D2E/DX2                !
 ! A14   A(2,3,39)             109.3131         estimate D2E/DX2                !
 ! A15   A(2,3,40)             109.3799         estimate D2E/DX2                !
 ! A16   A(4,3,39)             110.7418         estimate D2E/DX2                !
 ! A17   A(4,3,40)             108.4955         estimate D2E/DX2                !
 ! A18   A(39,3,40)            106.0687         estimate D2E/DX2                !
 ! A19   A(3,4,5)              110.6378         estimate D2E/DX2                !
 ! A20   A(3,4,12)             106.8951         estimate D2E/DX2                !
 ! A21   A(3,4,35)             107.03           estimate D2E/DX2                !
 ! A22   A(5,4,12)             116.1903         estimate D2E/DX2                !
 ! A23   A(5,4,35)             108.0555         estimate D2E/DX2                !
 ! A24   A(12,4,35)            107.6425         estimate D2E/DX2                !
 ! A25   A(4,5,6)              122.8512         estimate D2E/DX2                !
 ! A26   A(4,5,41)             117.8015         estimate D2E/DX2                !
 ! A27   A(6,5,41)             119.2739         estimate D2E/DX2                !
 ! A28   A(5,6,7)              118.0365         estimate D2E/DX2                !
 ! A29   A(5,6,11)             122.9974         estimate D2E/DX2                !
 ! A30   A(7,6,11)             118.9656         estimate D2E/DX2                !
 ! A31   A(6,7,8)              120.6286         estimate D2E/DX2                !
 ! A32   A(6,7,42)             120.4973         estimate D2E/DX2                !
 ! A33   A(8,7,42)             118.8741         estimate D2E/DX2                !
 ! A34   A(7,8,9)              120.0804         estimate D2E/DX2                !
 ! A35   A(7,8,43)             119.907          estimate D2E/DX2                !
 ! A36   A(9,8,43)             120.0126         estimate D2E/DX2                !
 ! A37   A(8,9,10)             119.7512         estimate D2E/DX2                !
 ! A38   A(8,9,44)             120.1243         estimate D2E/DX2                !
 ! A39   A(10,9,44)            120.1245         estimate D2E/DX2                !
 ! A40   A(9,10,11)            120.1722         estimate D2E/DX2                !
 ! A41   A(9,10,45)            120.0079         estimate D2E/DX2                !
 ! A42   A(11,10,45)           119.8197         estimate D2E/DX2                !
 ! A43   A(6,11,10)            120.4019         estimate D2E/DX2                !
 ! A44   A(6,11,46)            121.5434         estimate D2E/DX2                !
 ! A45   A(10,11,46)           118.0528         estimate D2E/DX2                !
 ! A46   A(4,12,13)            122.6779         estimate D2E/DX2                !
 ! A47   A(4,12,17)            117.5738         estimate D2E/DX2                !
 ! A48   A(13,12,17)           119.7068         estimate D2E/DX2                !
 ! A49   A(12,13,14)           121.4693         estimate D2E/DX2                !
 ! A50   A(12,13,47)           119.7802         estimate D2E/DX2                !
 ! A51   A(14,13,47)           118.7499         estimate D2E/DX2                !
 ! A52   A(13,14,15)           118.1409         estimate D2E/DX2                !
 ! A53   A(13,14,22)           120.9781         estimate D2E/DX2                !
 ! A54   A(15,14,22)           120.8765         estimate D2E/DX2                !
 ! A55   A(14,15,16)           121.0515         estimate D2E/DX2                !
 ! A56   A(14,15,48)           120.0799         estimate D2E/DX2                !
 ! A57   A(16,15,48)           118.8605         estimate D2E/DX2                !
 ! A58   A(15,16,17)           120.4353         estimate D2E/DX2                !
 ! A59   A(15,16,49)           118.6577         estimate D2E/DX2                !
 ! A60   A(17,16,49)           120.9028         estimate D2E/DX2                !
 ! A61   A(12,17,16)           119.132          estimate D2E/DX2                !
 ! A62   A(12,17,18)           118.845          estimate D2E/DX2                !
 ! A63   A(16,17,18)           121.9517         estimate D2E/DX2                !
 ! A64   A(2,18,17)            117.729          estimate D2E/DX2                !
 ! A65   A(2,18,19)            118.4834         estimate D2E/DX2                !
 ! A66   A(17,18,19)           123.0749         estimate D2E/DX2                !
 ! A67   A(18,19,20)           120.6072         estimate D2E/DX2                !
 ! A68   A(18,19,21)           122.7268         estimate D2E/DX2                !
 ! A69   A(20,19,21)           116.6287         estimate D2E/DX2                !
 ! A70   A(19,20,50)           111.8322         estimate D2E/DX2                !
 ! A71   A(19,20,51)           110.8619         estimate D2E/DX2                !
 ! A72   A(19,20,52)           110.1343         estimate D2E/DX2                !
 ! A73   A(50,20,51)           109.22           estimate D2E/DX2                !
 ! A74   A(50,20,52)           107.13           estimate D2E/DX2                !
 ! A75   A(51,20,52)           107.4985         estimate D2E/DX2                !
 ! A76   A(14,22,23)           120.8603         estimate D2E/DX2                !
 ! A77   A(14,22,33)           120.9987         estimate D2E/DX2                !
 ! A78   A(23,22,33)           118.1406         estimate D2E/DX2                !
 ! A79   A(22,23,24)           121.0842         estimate D2E/DX2                !
 ! A80   A(22,23,53)           120.0243         estimate D2E/DX2                !
 ! A81   A(24,23,53)           118.8883         estimate D2E/DX2                !
 ! A82   A(23,24,25)           120.2227         estimate D2E/DX2                !
 ! A83   A(23,24,54)           119.2528         estimate D2E/DX2                !
 ! A84   A(25,24,54)           120.5241         estimate D2E/DX2                !
 ! A85   A(24,25,26)           120.2468         estimate D2E/DX2                !
 ! A86   A(24,25,32)           119.235          estimate D2E/DX2                !
 ! A87   A(26,25,32)           120.5174         estimate D2E/DX2                !
 ! A88   A(25,26,55)           107.7141         estimate D2E/DX2                !
 ! A89   A(25,26,56)           110.3379         estimate D2E/DX2                !
 ! A90   A(25,26,69)           112.5158         estimate D2E/DX2                !
 ! A91   A(55,26,56)           106.133          estimate D2E/DX2                !
 ! A92   A(55,26,69)           109.8318         estimate D2E/DX2                !
 ! A93   A(56,26,69)           110.0815         estimate D2E/DX2                !
 ! A94   A(28,27,57)           109.8931         estimate D2E/DX2                !
 ! A95   A(28,27,58)           109.083          estimate D2E/DX2                !
 ! A96   A(28,27,69)           111.7042         estimate D2E/DX2                !
 ! A97   A(57,27,58)           106.5991         estimate D2E/DX2                !
 ! A98   A(57,27,69)           109.5307         estimate D2E/DX2                !
 ! A99   A(58,27,69)           109.8975         estimate D2E/DX2                !
 ! A100  A(27,28,29)           111.1538         estimate D2E/DX2                !
 ! A101  A(27,28,59)           109.8208         estimate D2E/DX2                !
 ! A102  A(27,28,60)           109.7719         estimate D2E/DX2                !
 ! A103  A(29,28,59)           109.8487         estimate D2E/DX2                !
 ! A104  A(29,28,60)           109.9552         estimate D2E/DX2                !
 ! A105  A(59,28,60)           106.1675         estimate D2E/DX2                !
 ! A106  A(28,29,30)           109.8652         estimate D2E/DX2                !
 ! A107  A(28,29,61)           110.3226         estimate D2E/DX2                !
 ! A108  A(28,29,62)           109.914          estimate D2E/DX2                !
 ! A109  A(30,29,61)           110.3132         estimate D2E/DX2                !
 ! A110  A(30,29,62)           109.8745         estimate D2E/DX2                !
 ! A111  A(61,29,62)           106.4986         estimate D2E/DX2                !
 ! A112  A(29,30,31)           111.3013         estimate D2E/DX2                !
 ! A113  A(29,30,63)           109.7975         estimate D2E/DX2                !
 ! A114  A(29,30,64)           109.8879         estimate D2E/DX2                !
 ! A115  A(31,30,63)           109.7868         estimate D2E/DX2                !
 ! A116  A(31,30,64)           109.7603         estimate D2E/DX2                !
 ! A117  A(63,30,64)           106.1767         estimate D2E/DX2                !
 ! A118  A(30,31,65)           109.9457         estimate D2E/DX2                !
 ! A119  A(30,31,66)           108.568          estimate D2E/DX2                !
 ! A120  A(30,31,69)           111.6579         estimate D2E/DX2                !
 ! A121  A(65,31,66)           106.552          estimate D2E/DX2                !
 ! A122  A(65,31,69)           109.5464         estimate D2E/DX2                !
 ! A123  A(66,31,69)           110.4369         estimate D2E/DX2                !
 ! A124  A(25,32,33)           120.222          estimate D2E/DX2                !
 ! A125  A(25,32,67)           120.4667         estimate D2E/DX2                !
 ! A126  A(33,32,67)           119.3112         estimate D2E/DX2                !
 ! A127  A(22,33,32)           121.0941         estimate D2E/DX2                !
 ! A128  A(22,33,68)           120.0625         estimate D2E/DX2                !
 ! A129  A(32,33,68)           118.8416         estimate D2E/DX2                !
 ! A130  A(26,69,27)           111.8538         estimate D2E/DX2                !
 ! A131  A(26,69,31)           113.4702         estimate D2E/DX2                !
 ! A132  A(26,69,70)           105.4584         estimate D2E/DX2                !
 ! A133  A(27,69,31)           111.9934         estimate D2E/DX2                !
 ! A134  A(27,69,70)           106.5489         estimate D2E/DX2                !
 ! A135  A(31,69,70)           106.918          estimate D2E/DX2                !
 ! D1    D(36,1,2,3)            53.9299         estimate D2E/DX2                !
 ! D2    D(36,1,2,18)         -178.5542         estimate D2E/DX2                !
 ! D3    D(36,1,2,34)          -60.4794         estimate D2E/DX2                !
 ! D4    D(37,1,2,3)           173.6248         estimate D2E/DX2                !
 ! D5    D(37,1,2,18)          -58.8593         estimate D2E/DX2                !
 ! D6    D(37,1,2,34)           59.2155         estimate D2E/DX2                !
 ! D7    D(38,1,2,3)           -66.0326         estimate D2E/DX2                !
 ! D8    D(38,1,2,18)           61.4833         estimate D2E/DX2                !
 ! D9    D(38,1,2,34)          179.5581         estimate D2E/DX2                !
 ! D10   D(1,2,3,4)            152.7535         estimate D2E/DX2                !
 ! D11   D(1,2,3,39)           -83.7026         estimate D2E/DX2                !
 ! D12   D(1,2,3,40)            32.031          estimate D2E/DX2                !
 ! D13   D(18,2,3,4)            26.6627         estimate D2E/DX2                !
 ! D14   D(18,2,3,39)          150.2066         estimate D2E/DX2                !
 ! D15   D(18,2,3,40)          -94.0599         estimate D2E/DX2                !
 ! D16   D(34,2,3,4)           -90.9955         estimate D2E/DX2                !
 ! D17   D(34,2,3,39)           32.5484         estimate D2E/DX2                !
 ! D18   D(34,2,3,40)          148.2819         estimate D2E/DX2                !
 ! D19   D(1,2,18,17)         -104.4901         estimate D2E/DX2                !
 ! D20   D(1,2,18,19)           84.8797         estimate D2E/DX2                !
 ! D21   D(3,2,18,17)           21.4658         estimate D2E/DX2                !
 ! D22   D(3,2,18,19)         -149.1644         estimate D2E/DX2                !
 ! D23   D(34,2,18,17)         137.4174         estimate D2E/DX2                !
 ! D24   D(34,2,18,19)         -33.2129         estimate D2E/DX2                !
 ! D25   D(2,3,4,5)            174.8187         estimate D2E/DX2                !
 ! D26   D(2,3,4,12)           -57.7877         estimate D2E/DX2                !
 ! D27   D(2,3,4,35)            57.3191         estimate D2E/DX2                !
 ! D28   D(39,3,4,5)            52.0723         estimate D2E/DX2                !
 ! D29   D(39,3,4,12)          179.4659         estimate D2E/DX2                !
 ! D30   D(39,3,4,35)          -65.4273         estimate D2E/DX2                !
 ! D31   D(40,3,4,5)           -63.9532         estimate D2E/DX2                !
 ! D32   D(40,3,4,12)           63.4404         estimate D2E/DX2                !
 ! D33   D(40,3,4,35)          178.5472         estimate D2E/DX2                !
 ! D34   D(3,4,5,6)           -158.2367         estimate D2E/DX2                !
 ! D35   D(3,4,5,41)            18.6212         estimate D2E/DX2                !
 ! D36   D(12,4,5,6)            79.6682         estimate D2E/DX2                !
 ! D37   D(12,4,5,41)         -103.4738         estimate D2E/DX2                !
 ! D38   D(35,4,5,6)           -41.3683         estimate D2E/DX2                !
 ! D39   D(35,4,5,41)          135.4896         estimate D2E/DX2                !
 ! D40   D(3,4,12,13)         -133.0152         estimate D2E/DX2                !
 ! D41   D(3,4,12,17)           44.6316         estimate D2E/DX2                !
 ! D42   D(5,4,12,13)           -8.9667         estimate D2E/DX2                !
 ! D43   D(5,4,12,17)          168.68           estimate D2E/DX2                !
 ! D44   D(35,4,12,13)         112.2899         estimate D2E/DX2                !
 ! D45   D(35,4,12,17)         -70.0634         estimate D2E/DX2                !
 ! D46   D(4,5,6,7)            177.4373         estimate D2E/DX2                !
 ! D47   D(4,5,6,11)            -2.8196         estimate D2E/DX2                !
 ! D48   D(41,5,6,7)             0.6236         estimate D2E/DX2                !
 ! D49   D(41,5,6,11)         -179.6333         estimate D2E/DX2                !
 ! D50   D(5,6,7,8)            179.9046         estimate D2E/DX2                !
 ! D51   D(5,6,7,42)            -0.1394         estimate D2E/DX2                !
 ! D52   D(11,6,7,8)             0.1509         estimate D2E/DX2                !
 ! D53   D(11,6,7,42)         -179.8931         estimate D2E/DX2                !
 ! D54   D(5,6,11,10)         -179.8622         estimate D2E/DX2                !
 ! D55   D(5,6,11,46)           -0.3792         estimate D2E/DX2                !
 ! D56   D(7,6,11,10)           -0.1214         estimate D2E/DX2                !
 ! D57   D(7,6,11,46)          179.3616         estimate D2E/DX2                !
 ! D58   D(6,7,8,9)             -0.0928         estimate D2E/DX2                !
 ! D59   D(6,7,8,43)           179.9707         estimate D2E/DX2                !
 ! D60   D(42,7,8,9)           179.9505         estimate D2E/DX2                !
 ! D61   D(42,7,8,43)            0.014          estimate D2E/DX2                !
 ! D62   D(7,8,9,10)             0.0029         estimate D2E/DX2                !
 ! D63   D(7,8,9,44)          -179.9226         estimate D2E/DX2                !
 ! D64   D(43,8,9,10)          179.9393         estimate D2E/DX2                !
 ! D65   D(43,8,9,44)            0.0139         estimate D2E/DX2                !
 ! D66   D(8,9,10,11)            0.0262         estimate D2E/DX2                !
 ! D67   D(8,9,10,45)         -179.782          estimate D2E/DX2                !
 ! D68   D(44,9,10,11)         179.9517         estimate D2E/DX2                !
 ! D69   D(44,9,10,45)           0.1435         estimate D2E/DX2                !
 ! D70   D(9,10,11,6)            0.0338         estimate D2E/DX2                !
 ! D71   D(9,10,11,46)        -179.4668         estimate D2E/DX2                !
 ! D72   D(45,10,11,6)         179.8424         estimate D2E/DX2                !
 ! D73   D(45,10,11,46)          0.3417         estimate D2E/DX2                !
 ! D74   D(4,12,13,14)         176.9619         estimate D2E/DX2                !
 ! D75   D(4,12,13,47)          -2.7687         estimate D2E/DX2                !
 ! D76   D(17,12,13,14)         -0.6364         estimate D2E/DX2                !
 ! D77   D(17,12,13,47)        179.6329         estimate D2E/DX2                !
 ! D78   D(4,12,17,16)        -175.1309         estimate D2E/DX2                !
 ! D79   D(4,12,17,18)           1.8595         estimate D2E/DX2                !
 ! D80   D(13,12,17,16)          2.5886         estimate D2E/DX2                !
 ! D81   D(13,12,17,18)        179.579          estimate D2E/DX2                !
 ! D82   D(12,13,14,15)         -1.0643         estimate D2E/DX2                !
 ! D83   D(12,13,14,22)        179.7047         estimate D2E/DX2                !
 ! D84   D(47,13,14,15)        178.6691         estimate D2E/DX2                !
 ! D85   D(47,13,14,22)         -0.562          estimate D2E/DX2                !
 ! D86   D(13,14,15,16)          0.8008         estimate D2E/DX2                !
 ! D87   D(13,14,15,48)       -178.1501         estimate D2E/DX2                !
 ! D88   D(22,14,15,16)       -179.9673         estimate D2E/DX2                !
 ! D89   D(22,14,15,48)          1.0818         estimate D2E/DX2                !
 ! D90   D(13,14,22,23)       -141.8206         estimate D2E/DX2                !
 ! D91   D(13,14,22,33)         37.9637         estimate D2E/DX2                !
 ! D92   D(15,14,22,23)         38.9694         estimate D2E/DX2                !
 ! D93   D(15,14,22,33)       -141.2463         estimate D2E/DX2                !
 ! D94   D(14,15,16,17)          1.1667         estimate D2E/DX2                !
 ! D95   D(14,15,16,49)       -178.0953         estimate D2E/DX2                !
 ! D96   D(48,15,16,17)       -179.8699         estimate D2E/DX2                !
 ! D97   D(48,15,16,49)          0.8681         estimate D2E/DX2                !
 ! D98   D(15,16,17,12)         -2.8635         estimate D2E/DX2                !
 ! D99   D(15,16,17,18)       -179.7564         estimate D2E/DX2                !
 ! D100  D(49,16,17,12)        176.3818         estimate D2E/DX2                !
 ! D101  D(49,16,17,18)         -0.5112         estimate D2E/DX2                !
 ! D102  D(12,17,18,2)         -37.5724         estimate D2E/DX2                !
 ! D103  D(12,17,18,19)        132.595          estimate D2E/DX2                !
 ! D104  D(16,17,18,2)         139.3292         estimate D2E/DX2                !
 ! D105  D(16,17,18,19)        -50.5035         estimate D2E/DX2                !
 ! D106  D(2,18,19,20)         163.4651         estimate D2E/DX2                !
 ! D107  D(2,18,19,21)         -14.2388         estimate D2E/DX2                !
 ! D108  D(17,18,19,20)         -6.6321         estimate D2E/DX2                !
 ! D109  D(17,18,19,21)        175.6639         estimate D2E/DX2                !
 ! D110  D(18,19,20,50)        -36.1518         estimate D2E/DX2                !
 ! D111  D(18,19,20,51)         86.0018         estimate D2E/DX2                !
 ! D112  D(18,19,20,52)       -155.1532         estimate D2E/DX2                !
 ! D113  D(21,19,20,50)        141.6875         estimate D2E/DX2                !
 ! D114  D(21,19,20,51)        -96.159          estimate D2E/DX2                !
 ! D115  D(21,19,20,52)         22.6861         estimate D2E/DX2                !
 ! D116  D(14,22,23,24)        179.9219         estimate D2E/DX2                !
 ! D117  D(14,22,23,53)          0.5737         estimate D2E/DX2                !
 ! D118  D(33,22,23,24)          0.1315         estimate D2E/DX2                !
 ! D119  D(33,22,23,53)       -179.2166         estimate D2E/DX2                !
 ! D120  D(14,22,33,32)       -179.9488         estimate D2E/DX2                !
 ! D121  D(14,22,33,68)          0.5409         estimate D2E/DX2                !
 ! D122  D(23,22,33,32)         -0.1587         estimate D2E/DX2                !
 ! D123  D(23,22,33,68)       -179.6691         estimate D2E/DX2                !
 ! D124  D(22,23,24,25)          0.1531         estimate D2E/DX2                !
 ! D125  D(22,23,24,54)       -179.594          estimate D2E/DX2                !
 ! D126  D(53,23,24,25)        179.5086         estimate D2E/DX2                !
 ! D127  D(53,23,24,54)         -0.2386         estimate D2E/DX2                !
 ! D128  D(23,24,25,26)        179.8963         estimate D2E/DX2                !
 ! D129  D(23,24,25,32)         -0.4098         estimate D2E/DX2                !
 ! D130  D(54,24,25,26)         -0.3597         estimate D2E/DX2                !
 ! D131  D(54,24,25,32)        179.3341         estimate D2E/DX2                !
 ! D132  D(24,25,26,55)         42.3399         estimate D2E/DX2                !
 ! D133  D(24,25,26,56)        157.7749         estimate D2E/DX2                !
 ! D134  D(24,25,26,69)        -78.8544         estimate D2E/DX2                !
 ! D135  D(32,25,26,55)       -137.35           estimate D2E/DX2                !
 ! D136  D(32,25,26,56)        -21.915          estimate D2E/DX2                !
 ! D137  D(32,25,26,69)        101.4557         estimate D2E/DX2                !
 ! D138  D(24,25,32,33)          0.3829         estimate D2E/DX2                !
 ! D139  D(24,25,32,67)       -179.7706         estimate D2E/DX2                !
 ! D140  D(26,25,32,33)       -179.924          estimate D2E/DX2                !
 ! D141  D(26,25,32,67)         -0.0776         estimate D2E/DX2                !
 ! D142  D(25,26,69,27)        165.293          estimate D2E/DX2                !
 ! D143  D(25,26,69,31)        -66.8256         estimate D2E/DX2                !
 ! D144  D(25,26,69,70)         49.8688         estimate D2E/DX2                !
 ! D145  D(55,26,69,27)         45.3167         estimate D2E/DX2                !
 ! D146  D(55,26,69,31)        173.1981         estimate D2E/DX2                !
 ! D147  D(55,26,69,70)        -70.1076         estimate D2E/DX2                !
 ! D148  D(56,26,69,27)        -71.1933         estimate D2E/DX2                !
 ! D149  D(56,26,69,31)         56.6881         estimate D2E/DX2                !
 ! D150  D(56,26,69,70)        173.3825         estimate D2E/DX2                !
 ! D151  D(57,27,28,29)         66.1199         estimate D2E/DX2                !
 ! D152  D(57,27,28,59)       -172.113          estimate D2E/DX2                !
 ! D153  D(57,27,28,60)        -55.7481         estimate D2E/DX2                !
 ! D154  D(58,27,28,29)       -177.3509         estimate D2E/DX2                !
 ! D155  D(58,27,28,59)        -55.5839         estimate D2E/DX2                !
 ! D156  D(58,27,28,60)         60.7811         estimate D2E/DX2                !
 ! D157  D(69,27,28,29)        -55.662          estimate D2E/DX2                !
 ! D158  D(69,27,28,59)         66.105          estimate D2E/DX2                !
 ! D159  D(69,27,28,60)       -177.53           estimate D2E/DX2                !
 ! D160  D(28,27,69,26)       -175.3608         estimate D2E/DX2                !
 ! D161  D(28,27,69,31)         55.9736         estimate D2E/DX2                !
 ! D162  D(28,27,69,70)        -60.6046         estimate D2E/DX2                !
 ! D163  D(57,27,69,26)         62.6486         estimate D2E/DX2                !
 ! D164  D(57,27,69,31)        -66.017          estimate D2E/DX2                !
 ! D165  D(57,27,69,70)        177.4048         estimate D2E/DX2                !
 ! D166  D(58,27,69,26)        -54.1431         estimate D2E/DX2                !
 ! D167  D(58,27,69,31)        177.1913         estimate D2E/DX2                !
 ! D168  D(58,27,69,70)         60.6131         estimate D2E/DX2                !
 ! D169  D(27,28,29,30)         54.5659         estimate D2E/DX2                !
 ! D170  D(27,28,29,61)        176.398          estimate D2E/DX2                !
 ! D171  D(27,28,29,62)        -66.4551         estimate D2E/DX2                !
 ! D172  D(59,28,29,30)        -67.1849         estimate D2E/DX2                !
 ! D173  D(59,28,29,61)         54.6472         estimate D2E/DX2                !
 ! D174  D(59,28,29,62)        171.7942         estimate D2E/DX2                !
 ! D175  D(60,28,29,30)        176.3272         estimate D2E/DX2                !
 ! D176  D(60,28,29,61)        -61.8408         estimate D2E/DX2                !
 ! D177  D(60,28,29,62)         55.3062         estimate D2E/DX2                !
 ! D178  D(28,29,30,31)        -54.4476         estimate D2E/DX2                !
 ! D179  D(28,29,30,63)         67.3234         estimate D2E/DX2                !
 ! D180  D(28,29,30,64)       -176.2467         estimate D2E/DX2                !
 ! D181  D(61,29,30,31)       -176.2853         estimate D2E/DX2                !
 ! D182  D(61,29,30,63)        -54.5143         estimate D2E/DX2                !
 ! D183  D(61,29,30,64)         61.9156         estimate D2E/DX2                !
 ! D184  D(62,29,30,31)         66.5971         estimate D2E/DX2                !
 ! D185  D(62,29,30,63)       -171.6319         estimate D2E/DX2                !
 ! D186  D(62,29,30,64)        -55.202          estimate D2E/DX2                !
 ! D187  D(29,30,31,65)        -66.533          estimate D2E/DX2                !
 ! D188  D(29,30,31,66)        177.2605         estimate D2E/DX2                !
 ! D189  D(29,30,31,69)         55.274          estimate D2E/DX2                !
 ! D190  D(63,30,31,65)        171.6898         estimate D2E/DX2                !
 ! D191  D(63,30,31,66)         55.4833         estimate D2E/DX2                !
 ! D192  D(63,30,31,69)        -66.5032         estimate D2E/DX2                !
 ! D193  D(64,30,31,65)         55.3402         estimate D2E/DX2                !
 ! D194  D(64,30,31,66)        -60.8663         estimate D2E/DX2                !
 ! D195  D(64,30,31,69)        177.1472         estimate D2E/DX2                !
 ! D196  D(30,31,69,26)        176.45           estimate D2E/DX2                !
 ! D197  D(30,31,69,27)        -55.7409         estimate D2E/DX2                !
 ! D198  D(30,31,69,70)         60.6143         estimate D2E/DX2                !
 ! D199  D(65,31,69,26)        -61.5129         estimate D2E/DX2                !
 ! D200  D(65,31,69,27)         66.2961         estimate D2E/DX2                !
 ! D201  D(65,31,69,70)       -177.3486         estimate D2E/DX2                !
 ! D202  D(66,31,69,26)         55.546          estimate D2E/DX2                !
 ! D203  D(66,31,69,27)       -176.6449         estimate D2E/DX2                !
 ! D204  D(66,31,69,70)        -60.2896         estimate D2E/DX2                !
 ! D205  D(25,32,33,22)         -0.0986         estimate D2E/DX2                !
 ! D206  D(25,32,33,68)        179.4176         estimate D2E/DX2                !
 ! D207  D(67,32,33,22)       -179.9468         estimate D2E/DX2                !
 ! D208  D(67,32,33,68)         -0.4306         estimate D2E/DX2                !
 --------------------------------------------------------------------------------
 Trust Radius=3.00D-01 FncErr=1.00D-07 GrdErr=1.00D-07
 Number of steps in this run= 420 maximum allowed number of steps= 420.
 GradGradGradGradGradGradGradGradGradGradGradGradGradGradGradGradGradGrad

 Stoichiometry    C30H36N3O(1+)
 Framework group  C1[X(C30H36N3O)]
 Deg. of freedom   204
 Full point group                 C1
 Largest Abelian subgroup         C1      NOp   1
 Largest concise Abelian subgroup C1      NOp   1
                         Standard orientation:                         
 ---------------------------------------------------------------------
 Center     Atomic     Atomic              Coordinates (Angstroms)
 Number     Number      Type              X           Y           Z
 ---------------------------------------------------------------------
    1          6             0       -5.382445   -2.515399    2.286353
    2          6             0       -5.180204   -1.471711    1.170582
    3          6             0       -4.580534   -0.159585    1.742670
    4          6             0       -3.763344    0.618100    0.703064
    5          7             0       -3.322866    1.900149    1.248391
    6          6             0       -2.960452    2.987961    0.438572
    7          6             0       -2.603031    4.196283    1.072413
    8          6             0       -2.228300    5.321618    0.312727
    9          6             0       -2.205544    5.248265   -1.092779
   10          6             0       -2.558408    4.047308   -1.734986
   11          6             0       -2.933950    2.921486   -0.974976
   12          6             0       -2.663449   -0.318644    0.212607
   13          6             0       -1.312252    0.082780    0.101253
   14          6             0       -0.304248   -0.823337   -0.295401
   15          6             0       -0.676164   -2.159116   -0.559288
   16          6             0       -2.015989   -2.575190   -0.447702
   17          6             0       -3.025740   -1.651393   -0.090461
   18          7             0       -4.401702   -2.041468    0.037713
   19          6             0       -5.070527   -2.741900   -0.925017
   20          6             0       -4.415968   -3.024078   -2.280430
   21          8             0       -6.230934   -3.142061   -0.775932
   22          6             0        1.103869   -0.390409   -0.414479
   23          6             0        1.925850   -0.875697   -1.456730
   24          6             0        3.268364   -0.464888   -1.575668
   25          6             0        3.817933    0.442099   -0.646677
   26          6             0        5.270147    0.884838   -0.773381
   27          6             0        7.616353    0.142049   -0.694976
   28          6             0        8.582014   -0.974973   -0.254281
   29          6             0        8.520437   -1.193341    1.263069
   30          6             0        7.071169   -1.459298    1.693392
   31          6             0        6.130040   -0.336248    1.215191
   32          6             0        3.006534    0.937768    0.394459
   33          6             0        1.664976    0.522953    0.506687
   34          1             0       -6.165260   -1.189669    0.792104
   35          1             0       -4.426293    0.818899   -0.139099
   36          1             0       -5.974740   -2.103959    3.104238
   37          1             0       -5.905101   -3.400620    1.922328
   38          1             0       -4.427594   -2.842722    2.700078
   39          1             0       -5.384326    0.459530    2.144221
   40          1             0       -3.930630   -0.396409    2.587494
   41          1             0       -3.327760    2.012373    2.257883
   42          1             0       -2.612936    4.274022    2.150057
   43          1             0       -1.956992    6.242098    0.810653
   44          1             0       -1.916567    6.111980   -1.677057
   45          1             0       -2.538969    3.985268   -2.814536
   46          1             0       -3.189685    2.014669   -1.502833
   47          1             0       -1.035266    1.101519    0.326610
   48          1             0        0.074734   -2.886128   -0.836013
   49          1             0       -2.252563   -3.612772   -0.628194
   50          1             0       -3.796134   -2.191551   -2.612284
   51          1             0       -3.809559   -3.927834   -2.237676
   52          1             0       -5.180893   -3.178303   -3.041701
   53          1             0        1.524476   -1.565358   -2.185315
   54          1             0        3.868900   -0.849923   -2.388772
   55          1             0        5.468395    1.074614   -1.829236
   56          1             0        5.422880    1.836104   -0.260347
   57          1             0        7.945287    1.099142   -0.287740
   58          1             0        7.652350    0.236651   -1.781336
   59          1             0        8.335437   -1.902785   -0.772324
   60          1             0        9.599516   -0.721831   -0.552754
   61          1             0        9.160283   -2.027796    1.551883
   62          1             0        8.905748   -0.313601    1.781130
   63          1             0        6.736618   -2.417099    1.292634
   64          1             0        7.016920   -1.548555    2.779179
   65          1             0        6.371336    0.595311    1.728754
   66          1             0        5.109698   -0.593162    1.500908
   67          1             0        3.406555    1.637187    1.115835
   68          1             0        1.065599    0.909837    1.319299
   69          7             0        6.221929   -0.131857   -0.256719
   70          1             0        5.949645   -1.000213   -0.691131
 ---------------------------------------------------------------------
 Rotational constants (GHZ):      0.1712253      0.0508406      0.0431273
 Standard basis: 6-31G(d) (6D, 7F)
 There are   582 symmetry adapted basis functions of A   symmetry.
 Integral buffers will be    131072 words long.
 Raffenetti 1 integral format.
 Two-electron integral symmetry is turned on.
   582 basis functions,  1096 primitive gaussians,   582 cartesian basis functions
   122 alpha electrons      122 beta electrons
       nuclear repulsion energy      3329.5870531215 Hartrees.
 NAtoms=   70 NActive=   70 NUniq=   70 SFac= 7.50D-01 NAtFMM=   80 NAOKFM=F Big=T
 One-electron integrals computed using PRISM.
 NBasis=   582 RedAO= T  NBF=   582
 NBsUse=   582 1.00D-06 NBFU=   582
 Harris functional with IExCor=  205 diagonalized for initial guess.
 ExpMin= 1.61D-01 ExpMax= 5.48D+03 ExpMxC= 8.25D+02 IAcc=1 IRadAn=         1 AccDes= 1.00D-06
 HarFok:  IExCor= 205 AccDes= 1.00D-06 IRadAn=         1 IDoV=1
 ScaDFX=  1.000000  1.000000  1.000000  1.000000
 Initial guess orbital symmetries:
       Occupied  (A) (A) (A) (A) (A) (A) (A) (A) (A) (A) (A) (A)
                 (A) (A) (A) (A) (A) (A) (A) (A) (A) (A) (A) (A)
                 (A) (A) (A) (A) (A) (A) (A) (A) (A) (A) (A) (A)
                 (A) (A) (A) (A) (A) (A) (A) (A) (A) (A) (A) (A)
                 (A) (A) (A) (A) (A) (A) (A) (A) (A) (A) (A) (A)
                 (A) (A) (A) (A) (A) (A) (A) (A) (A) (A) (A) (A)
                 (A) (A) (A) (A) (A) (A) (A) (A) (A) (A) (A) (A)
                 (A) (A) (A) (A) (A) (A) (A) (A) (A) (A) (A) (A)
                 (A) (A) (A) (A) (A) (A) (A) (A) (A) (A) (A) (A)
                 (A) (A) (A) (A) (A) (A) (A) (A) (A) (A) (A) (A)
                 (A) (A)
       Virtual   (A) (A) (A) (A) (A) (A) (A) (A) (A) (A) (A) (A)
                 (A) (A) (A) (A) (A) (A) (A) (A) (A) (A) (A) (A)
                 (A) (A) (A) (A) (A) (A) (A) (A) (A) (A) (A) (A)
                 (A) (A) (A) (A) (A) (A) (A) (A) (A) (A) (A) (A)
                 (A) (A) (A) (A) (A) (A) (A) (A) (A) (A) (A) (A)
                 (A) (A) (A) (A) (A) (A) (A) (A) (A) (A) (A) (A)
                 (A) (A) (A) (A) (A) (A) (A) (A) (A) (A) (A) (A)
                 (A) (A) (A) (A) (A) (A) (A) (A) (A) (A) (A) (A)
                 (A) (A) (A) (A) (A) (A) (A) (A) (A) (A) (A) (A)
                 (A) (A) (A) (A) (A) (A) (A) (A) (A) (A) (A) (A)
                 (A) (A) (A) (A) (A) (A) (A) (A) (A) (A) (A) (A)
                 (A) (A) (A) (A) (A) (A) (A) (A) (A) (A) (A) (A)
                 (A) (A) (A) (A) (A) (A) (A) (A) (A) (A) (A) (A)
                 (A) (A) (A) (A) (A) (A) (A) (A) (A) (A) (A) (A)
                 (A) (A) (A) (A) (A) (A) (A) (A) (A) (A) (A) (A)
                 (A) (A) (A) (A) (A) (A) (A) (A) (A) (A) (A) (A)
                 (A) (A) (A) (A) (A) (A) (A) (A) (A) (A) (A) (A)
                 (A) (A) (A) (A) (A) (A) (A) (A) (A) (A) (A) (A)
                 (A) (A) (A) (A) (A) (A) (A) (A) (A) (A) (A) (A)
                 (A) (A) (A) (A) (A) (A) (A) (A) (A) (A) (A) (A)
                 (A) (A) (A) (A) (A) (A) (A) (A) (A) (A) (A) (A)
                 (A) (A) (A) (A) (A) (A) (A) (A) (A) (A) (A) (A)
                 (A) (A) (A) (A) (A) (A) (A) (A) (A) (A) (A) (A)
                 (A) (A) (A) (A) (A) (A) (A) (A) (A) (A) (A) (A)
                 (A) (A) (A) (A) (A) (A) (A) (A) (A) (A) (A) (A)
                 (A) (A) (A) (A) (A) (A) (A) (A) (A) (A) (A) (A)
                 (A) (A) (A) (A) (A) (A) (A) (A) (A) (A) (A) (A)
                 (A) (A) (A) (A) (A) (A) (A) (A) (A) (A) (A) (A)
                 (A) (A) (A) (A) (A) (A) (A) (A) (A) (A) (A) (A)
                 (A) (A) (A) (A) (A) (A) (A) (A) (A) (A) (A) (A)
                 (A) (A) (A) (A) (A) (A) (A) (A) (A) (A) (A) (A)
                 (A) (A) (A) (A) (A) (A) (A) (A) (A) (A) (A) (A)
                 (A) (A) (A) (A) (A) (A) (A) (A) (A) (A) (A) (A)
                 (A) (A) (A) (A) (A) (A) (A) (A) (A) (A) (A) (A)
                 (A) (A) (A) (A) (A) (A) (A) (A) (A) (A) (A) (A)
                 (A) (A) (A) (A) (A) (A) (A) (A) (A) (A) (A) (A)
                 (A) (A) (A) (A) (A) (A) (A) (A) (A) (A) (A) (A)
                 (A) (A) (A) (A) (A) (A) (A) (A) (A) (A) (A) (A)
                 (A) (A) (A) (A)
 The electronic state of the initial guess is 1-A.
 Requested convergence on RMS density matrix=1.00D-08 within 128 cycles.
 Requested convergence on MAX density matrix=1.00D-06.
 Requested convergence on             energy=1.00D-06.
 No special actions if energy rises.
 Integral accuracy reduced to 1.0D-05 until final iterations.
 Initial convergence to 1.0D-05 achieved.  Increase integral accuracy.
 SCF Done:  E(RHF) =  -1395.04115983     A.U. after   16 cycles
             Convg  =    0.6647D-08             -V/T =  2.0023
             S**2   =   0.0000

 **********************************************************************

            Population analysis using the SCF density.

 **********************************************************************

 Orbital symmetries:
 BldTbl:  Degeneracy threshold= 1.00D-02
       Occupied  (A) (A) (A) (A) (A) (A) (A) (A) (A) (A) (A) (A)
                 (A) (A) (A) (A) (A) (A) (A) (A) (A) (A) (A) (A)
                 (A) (A) (A) (A) (A) (A) (A) (A) (A) (A) (A) (A)
                 (A) (A) (A) (A) (A) (A) (A) (A) (A) (A) (A) (A)
                 (A) (A) (A) (A) (A) (A) (A) (A) (A) (A) (A) (A)
                 (A) (A) (A) (A) (A) (A) (A) (A) (A) (A) (A) (A)
                 (A) (A) (A) (A) (A) (A) (A) (A) (A) (A) (A) (A)
                 (A) (A) (A) (A) (A) (A) (A) (A) (A) (A) (A) (A)
                 (A) (A) (A) (A) (A) (A) (A) (A) (A) (A) (A) (A)
                 (A) (A) (A) (A) (A) (A) (A) (A) (A) (A) (A) (A)
                 (A) (A)
       Virtual   (A) (A) (A) (A) (A) (A) (A) (A) (A) (A) (A) (A)
                 (A) (A) (A) (A) (A) (A) (A) (A) (A) (A) (A) (A)
                 (A) (A) (A) (A) (A) (A) (A) (A) (A) (A) (A) (A)
                 (A) (A) (A) (A) (A) (A) (A) (A) (A) (A) (A) (A)
                 (A) (A) (A) (A) (A) (A) (A) (A) (A) (A) (A) (A)
                 (A) (A) (A) (A) (A) (A) (A) (A) (A) (A) (A) (A)
                 (A) (A) (A) (A) (A) (A) (A) (A) (A) (A) (A) (A)
                 (A) (A) (A) (A) (A) (A) (A) (A) (A) (A) (A) (A)
                 (A) (A) (A) (A) (A) (A) (A) (A) (A) (A) (A) (A)
                 (A) (A) (A) (A) (A) (A) (A) (A) (A) (A) (A) (A)
                 (A) (A) (A) (A) (A) (A) (A) (A) (A) (A) (A) (A)
                 (A) (A) (A) (A) (A) (A) (A) (A) (A) (A) (A) (A)
                 (A) (A) (A) (A) (A) (A) (A) (A) (A) (A) (A) (A)
                 (A) (A) (A) (A) (A) (A) (A) (A) (A) (A) (A) (A)
                 (A) (A) (A) (A) (A) (A) (A) (A) (A) (A) (A) (A)
                 (A) (A) (A) (A) (A) (A) (A) (A) (A) (A) (A) (A)
                 (A) (A) (A) (A) (A) (A) (A) (A) (A) (A) (A) (A)
                 (A) (A) (A) (A) (A) (A) (A) (A) (A) (A) (A) (A)
                 (A) (A) (A) (A) (A) (A) (A) (A) (A) (A) (A) (A)
                 (A) (A) (A) (A) (A) (A) (A) (A) (A) (A) (A) (A)
                 (A) (A) (A) (A) (A) (A) (A) (A) (A) (A) (A) (A)
                 (A) (A) (A) (A) (A) (A) (A) (A) (A) (A) (A) (A)
                 (A) (A) (A) (A) (A) (A) (A) (A) (A) (A) (A) (A)
                 (A) (A) (A) (A) (A) (A) (A) (A) (A) (A) (A) (A)
                 (A) (A) (A) (A) (A) (A) (A) (A) (A) (A) (A) (A)
                 (A) (A) (A) (A) (A) (A) (A) (A) (A) (A) (A) (A)
                 (A) (A) (A) (A) (A) (A) (A) (A) (A) (A) (A) (A)
                 (A) (A) (A) (A) (A) (A) (A) (A) (A) (A) (A) (A)
                 (A) (A) (A) (A) (A) (A) (A) (A) (A) (A) (A) (A)
                 (A) (A) (A) (A) (A) (A) (A) (A) (A) (A) (A) (A)
                 (A) (A) (A) (A) (A) (A) (A) (A) (A) (A) (A) (A)
                 (A) (A) (A) (A) (A) (A) (A) (A) (A) (A) (A) (A)
                 (A) (A) (A) (A) (A) (A) (A) (A) (A) (A) (A) (A)
                 (A) (A) (A) (A) (A) (A) (A) (A) (A) (A) (A) (A)
                 (A) (A) (A) (A) (A) (A) (A) (A) (A) (A) (A) (A)
                 (A) (A) (A) (A) (A) (A) (A) (A) (A) (A) (A) (A)
                 (A) (A) (A) (A) (A) (A) (A) (A) (A) (A) (A) (A)
                 (A) (A) (A) (A) (A) (A) (A) (A) (A) (A) (A) (A)
                 (A) (A) (A) (A)
 The electronic state is 1-A.
 Alpha  occ. eigenvalues --  -20.57644 -15.85330 -15.66615 -15.63634 -11.44021
 Alpha  occ. eigenvalues --  -11.44003 -11.43607 -11.41117 -11.37822 -11.37694
 Alpha  occ. eigenvalues --  -11.37623 -11.36646 -11.36478 -11.36411 -11.36298
 Alpha  occ. eigenvalues --  -11.36271 -11.35219 -11.35069 -11.34692 -11.34534
 Alpha  occ. eigenvalues --  -11.33687 -11.33244 -11.32548 -11.32356 -11.32138
 Alpha  occ. eigenvalues --  -11.32097 -11.30044 -11.29600 -11.29570 -11.28737
 Alpha  occ. eigenvalues --  -11.28544 -11.28469 -11.27799 -11.26784  -1.50012
 Alpha  occ. eigenvalues --   -1.42596  -1.32582  -1.29978  -1.27627  -1.24310
 Alpha  occ. eigenvalues --   -1.22206  -1.19880  -1.18642  -1.17316  -1.14109
 Alpha  occ. eigenvalues --   -1.12877  -1.11890  -1.09475  -1.07156  -1.06282
 Alpha  occ. eigenvalues --   -1.05973  -1.05052  -1.03862  -1.02981  -1.01199
 Alpha  occ. eigenvalues --   -0.96882  -0.95401  -0.94586  -0.93473  -0.91184
 Alpha  occ. eigenvalues --   -0.89368  -0.88508  -0.87175  -0.86612  -0.85108
 Alpha  occ. eigenvalues --   -0.84840  -0.82663  -0.82114  -0.79502  -0.78272
 Alpha  occ. eigenvalues --   -0.77216  -0.76720  -0.76156  -0.74519  -0.74239
 Alpha  occ. eigenvalues --   -0.73811  -0.73475  -0.72857  -0.72226  -0.71626
 Alpha  occ. eigenvalues --   -0.70869  -0.70459  -0.70193  -0.69128  -0.68821
 Alpha  occ. eigenvalues --   -0.68242  -0.68079  -0.66611  -0.66391  -0.65930
 Alpha  occ. eigenvalues --   -0.64927  -0.64447  -0.64315  -0.63696  -0.62823
 Alpha  occ. eigenvalues --   -0.62043  -0.61861  -0.61748  -0.61645  -0.61128
 Alpha  occ. eigenvalues --   -0.60929  -0.60770  -0.60470  -0.59151  -0.58883
 Alpha  occ. eigenvalues --   -0.57927  -0.57162  -0.56168  -0.55783  -0.55127
 Alpha  occ. eigenvalues --   -0.54564  -0.53672  -0.52697  -0.48714  -0.47868
 Alpha  occ. eigenvalues --   -0.46534  -0.44900  -0.44402  -0.40866  -0.38610
 Alpha  occ. eigenvalues --   -0.37309  -0.34051
 Alpha virt. eigenvalues --   -0.01092   0.01280   0.04728   0.05446   0.06505
 Alpha virt. eigenvalues --    0.08280   0.08712   0.09961   0.10565   0.11549
 Alpha virt. eigenvalues --    0.12369   0.13678   0.14043   0.14125   0.14864
 Alpha virt. eigenvalues --    0.16277   0.16664   0.16747   0.17249   0.17640
 Alpha virt. eigenvalues --    0.17850   0.18110   0.18500   0.18719   0.19379
 Alpha virt. eigenvalues --    0.19661   0.20048   0.20577   0.21024   0.22220
 Alpha virt. eigenvalues --    0.22524   0.22942   0.23138   0.23720   0.23839
 Alpha virt. eigenvalues --    0.24022   0.24616   0.25040   0.25309   0.25482
 Alpha virt. eigenvalues --    0.26009   0.26747   0.26895   0.27594   0.27924
 Alpha virt. eigenvalues --    0.28298   0.28488   0.29039   0.29438   0.30227
 Alpha virt. eigenvalues --    0.30493   0.30510   0.31037   0.31533   0.31931
 Alpha virt. eigenvalues --    0.32540   0.33674   0.35469   0.35655   0.37030
 Alpha virt. eigenvalues --    0.37555   0.38141   0.38262   0.38889   0.40357
 Alpha virt. eigenvalues --    0.40682   0.40815   0.42549   0.43173   0.44120
 Alpha virt. eigenvalues --    0.45865   0.46755   0.47865   0.48570   0.49218
 Alpha virt. eigenvalues --    0.50331   0.51530   0.53924   0.54405   0.55362
 Alpha virt. eigenvalues --    0.55910   0.57047   0.58141   0.59507   0.60381
 Alpha virt. eigenvalues --    0.60742   0.61098   0.62486   0.63513   0.63778
 Alpha virt. eigenvalues --    0.64451   0.65804   0.66217   0.66924   0.67105
 Alpha virt. eigenvalues --    0.67509   0.67970   0.68218   0.68509   0.69465
 Alpha virt. eigenvalues --    0.69563   0.69986   0.70542   0.71110   0.71218
 Alpha virt. eigenvalues --    0.71746   0.72460   0.72625   0.73238   0.73657
 Alpha virt. eigenvalues --    0.73771   0.74505   0.75231   0.75385   0.75574
 Alpha virt. eigenvalues --    0.76258   0.76871   0.76889   0.77264   0.77899
 Alpha virt. eigenvalues --    0.78263   0.78513   0.78629   0.78974   0.80004
 Alpha virt. eigenvalues --    0.80277   0.80712   0.81843   0.82702   0.82985
 Alpha virt. eigenvalues --    0.83425   0.84063   0.84442   0.84810   0.85406
 Alpha virt. eigenvalues --    0.86559   0.87287   0.87578   0.88621   0.88938
 Alpha virt. eigenvalues --    0.89494   0.90074   0.90484   0.91565   0.92107
 Alpha virt. eigenvalues --    0.92847   0.93319   0.94735   0.95377   0.95671
 Alpha virt. eigenvalues --    0.96394   0.96726   0.97801   0.98153   0.98633
 Alpha virt. eigenvalues --    0.99042   0.99523   0.99878   1.00337   1.00410
 Alpha virt. eigenvalues --    1.01403   1.01427   1.02592   1.02805   1.03399
 Alpha virt. eigenvalues --    1.03697   1.04299   1.04460   1.05100   1.05309
 Alpha virt. eigenvalues --    1.05750   1.06082   1.06300   1.06577   1.06669
 Alpha virt. eigenvalues --    1.06821   1.07181   1.07517   1.08399   1.09080
 Alpha virt. eigenvalues --    1.09721   1.09836   1.10238   1.10788   1.11008
 Alpha virt. eigenvalues --    1.11158   1.11666   1.12001   1.12794   1.13383
 Alpha virt. eigenvalues --    1.13695   1.14008   1.14060   1.14595   1.14847
 Alpha virt. eigenvalues --    1.14939   1.15790   1.15849   1.16431   1.17153
 Alpha virt. eigenvalues --    1.17972   1.18474   1.18666   1.19786   1.21154
 Alpha virt. eigenvalues --    1.21960   1.22483   1.23019   1.24872   1.26051
 Alpha virt. eigenvalues --    1.26072   1.26699   1.27209   1.28380   1.29235
 Alpha virt. eigenvalues --    1.30224   1.30648   1.30995   1.32854   1.33184
 Alpha virt. eigenvalues --    1.34272   1.36242   1.36379   1.36963   1.37908
 Alpha virt. eigenvalues --    1.38954   1.40640   1.41223   1.41965   1.43344
 Alpha virt. eigenvalues --    1.43816   1.44498   1.44854   1.46510   1.46860
 Alpha virt. eigenvalues --    1.48357   1.51070   1.52188   1.52837   1.54021
 Alpha virt. eigenvalues --    1.55230   1.57642   1.58300   1.59191   1.60285
 Alpha virt. eigenvalues --    1.61109   1.61409   1.62119   1.63699   1.64301
 Alpha virt. eigenvalues --    1.64869   1.66035   1.66056   1.67309   1.67853
 Alpha virt. eigenvalues --    1.68169   1.68863   1.69438   1.71129   1.71815
 Alpha virt. eigenvalues --    1.72152   1.72585   1.73792   1.74498   1.75598
 Alpha virt. eigenvalues --    1.76766   1.79739   1.81390   1.83199   1.84284
 Alpha virt. eigenvalues --    1.84985   1.88324   1.89975   1.90524   1.92254
 Alpha virt. eigenvalues --    1.92901   1.94796   1.95550   1.96516   1.97077
 Alpha virt. eigenvalues --    1.97880   1.98806   1.98953   2.00280   2.00739
 Alpha virt. eigenvalues --    2.01215   2.02128   2.02713   2.03633   2.03840
 Alpha virt. eigenvalues --    2.05212   2.05572   2.05756   2.06256   2.06429
 Alpha virt. eigenvalues --    2.07508   2.07627   2.07877   2.09581   2.10228
 Alpha virt. eigenvalues --    2.10368   2.10764   2.11761   2.12804   2.13240
 Alpha virt. eigenvalues --    2.14904   2.15526   2.16813   2.17503   2.18174
 Alpha virt. eigenvalues --    2.18471   2.19163   2.19460   2.19901   2.21093
 Alpha virt. eigenvalues --    2.21805   2.22832   2.22989   2.23732   2.24527
 Alpha virt. eigenvalues --    2.24956   2.25615   2.26666   2.28258   2.28883
 Alpha virt. eigenvalues --    2.30367   2.30759   2.30981   2.31534   2.32397
 Alpha virt. eigenvalues --    2.32870   2.34115   2.34401   2.35009   2.36700
 Alpha virt. eigenvalues --    2.37227   2.38762   2.39558   2.40003   2.40953
 Alpha virt. eigenvalues --    2.42174   2.42883   2.43975   2.45343   2.46052
 Alpha virt. eigenvalues --    2.46653   2.47090   2.47803   2.48348   2.49554
 Alpha virt. eigenvalues --    2.50028   2.50659   2.50952   2.51898   2.52526
 Alpha virt. eigenvalues --    2.53508   2.53798   2.55219   2.55470   2.56057
 Alpha virt. eigenvalues --    2.56320   2.56737   2.57424   2.58454   2.59849
 Alpha virt. eigenvalues --    2.60152   2.60902   2.63815   2.64295   2.65266
 Alpha virt. eigenvalues --    2.66221   2.68795   2.69752   2.72099   2.74623
 Alpha virt. eigenvalues --    2.74705   2.76186   2.77191   2.77885   2.80342
 Alpha virt. eigenvalues --    2.80766   2.81262   2.82826   2.83810   2.84266
 Alpha virt. eigenvalues --    2.85021   2.85900   2.87156   2.87564   2.89437
 Alpha virt. eigenvalues --    2.90041   2.90637   2.91865   2.92641   2.93346
 Alpha virt. eigenvalues --    2.94448   2.96319   2.97849   2.98431   2.99188
 Alpha virt. eigenvalues --    2.99931   3.00908   3.01621   3.02655   3.03133
 Alpha virt. eigenvalues --    3.04583   3.06229   3.07320   3.07868   3.10218
 Alpha virt. eigenvalues --    3.10864   3.13055   3.16515   3.18726   3.21190
 Alpha virt. eigenvalues --    3.23908   3.25209   3.26397   3.32689   3.39414
 Alpha virt. eigenvalues --    3.47565   3.50062   3.54769   3.62136   3.71227
 Alpha virt. eigenvalues --    3.73281   4.28612   4.38524   4.40203   4.41867
 Alpha virt. eigenvalues --    4.42922   4.45110   4.45489   4.45683   4.47414
 Alpha virt. eigenvalues --    4.48731   4.49354   4.49563   4.51412   4.53547
 Alpha virt. eigenvalues --    4.55882   4.58854   4.61470   4.64714   4.66622
 Alpha virt. eigenvalues --    4.67274   4.69865   4.70750   4.73953   4.74667
 Alpha virt. eigenvalues --    4.75260   4.80016   4.81949   4.83145   4.86761
 Alpha virt. eigenvalues --    4.90578   5.01636   5.04522   5.09128   5.14956
          Condensed to atoms (all electrons):
 Mulliken atomic charges:
              1
     1  C   -0.484587
     2  C    0.066372
     3  C   -0.375942
     4  C    0.103053
     5  N   -0.893754
     6  C    0.393387
     7  C   -0.281673
     8  C   -0.177273
     9  C   -0.238662
    10  C   -0.176070
    11  C   -0.284561
    12  C   -0.034911
    13  C   -0.227680
    14  C   -0.001450
    15  C   -0.219090
    16  C   -0.207859
    17  C    0.313927
    18  N   -0.791765
    19  C    0.751218
    20  C   -0.580655
    21  O   -0.611777
    22  C    0.029755
    23  C   -0.208423
    24  C   -0.222344
    25  C   -0.030046
    26  C   -0.214149
    27  C   -0.190388
    28  C   -0.354575
    29  C   -0.333431
    30  C   -0.355321
    31  C   -0.190476
    32  C   -0.212514
    33  C   -0.208198
    34  H    0.219859
    35  H    0.202912
    36  H    0.166398
    37  H    0.213194
    38  H    0.155810
    39  H    0.204254
    40  H    0.172041
    41  H    0.385635
    42  H    0.194762
    43  H    0.209113
    44  H    0.200009
    45  H    0.209252
    46  H    0.205927
    47  H    0.247463
    48  H    0.211372
    49  H    0.231469
    50  H    0.183490
    51  H    0.190898
    52  H    0.228611
    53  H    0.239311
    54  H    0.210667
    55  H    0.250330
    56  H    0.247864
    57  H    0.236106
    58  H    0.241452
    59  H    0.191269
    60  H    0.231090
    61  H    0.220087
    62  H    0.188308
    63  H    0.192692
    64  H    0.230071
    65  H    0.229454
    66  H    0.261116
    67  H    0.220242
    68  H    0.241767
    69  N   -0.656027
    70  H    0.441596
 Sum of Mulliken charges=   1.00000
 Atomic charges with hydrogens summed into heavy atoms:
              1
     1  C    0.050814
     2  C    0.286231
     3  C    0.000353
     4  C    0.305964
     5  N   -0.508119
     6  C    0.393387
     7  C   -0.086911
     8  C    0.031840
     9  C   -0.038653
    10  C    0.033181
    11  C   -0.078634
    12  C   -0.034911
    13  C    0.019783
    14  C   -0.001450
    15  C   -0.007718
    16  C    0.023611
    17  C    0.313927
    18  N   -0.791765
    19  C    0.751218
    20  C    0.022344
    21  O   -0.611777
    22  C    0.029755
    23  C    0.030888
    24  C   -0.011677
    25  C   -0.030046
    26  C    0.284045
    27  C    0.287170
    28  C    0.067784
    29  C    0.074964
    30  C    0.067442
    31  C    0.300093
    32  C    0.007727
    33  C    0.033569
    34  H    0.000000
    35  H    0.000000
    36  H    0.000000
    37  H    0.000000
    38  H    0.000000
    39  H    0.000000
    40  H    0.000000
    41  H    0.000000
    42  H    0.000000
    43  H    0.000000
    44  H    0.000000
    45  H    0.000000
    46  H    0.000000
    47  H    0.000000
    48  H    0.000000
    49  H    0.000000
    50  H    0.000000
    51  H    0.000000
    52  H    0.000000
    53  H    0.000000
    54  H    0.000000
    55  H    0.000000
    56  H    0.000000
    57  H    0.000000
    58  H    0.000000
    59  H    0.000000
    60  H    0.000000
    61  H    0.000000
    62  H    0.000000
    63  H    0.000000
    64  H    0.000000
    65  H    0.000000
    66  H    0.000000
    67  H    0.000000
    68  H    0.000000
    69  N   -0.214432
    70  H    0.000000
 Sum of Mulliken charges=   1.00000
 Entering OneElI...
 OneElI was handed  5771617 working-precision words.
 Multipole integrals L=0 to 4 MinM= 0 MaxM= 0.
 Requested accuracy = 0.1000D-12
 PrsmSu:  NPrtUS=   1 ThrOK=F
 PRISM was handed     4723299 working-precision words and 11682 shell-pairs
 Electronic moments (au):
  -244.00000000    11.41534492    -0.03548597     0.39213113
-18548.46623429 -4772.02312591 -1394.77613161   -15.09368619
    -7.32488226     4.69414148-88162.05332974-16141.91556967
  -271.46975889 22301.70449698 25398.96123060 -8656.80933519
  2295.29475845  1041.54004153  2512.14879522  2169.68601591
******************************-21563.01338656  1355.06748784
-66414.04262512 49531.70104557  6262.75783839  -405.44580723
  2187.09374282******************************-31531.87665421
 19320.96125159-18387.27123719 -6181.87307504
 Electronic spatial extent (au):  <R**2>= 24715.2655
 Nuclear    moments (au):
   245.00000000     0.00000000     0.00000000     0.00000000
 18528.54286147  4627.73263661  1260.46623635     0.00000000
     0.00000000     0.00000000 90487.95525325 16167.25406779
   278.62352672-22142.71910996-25350.96128275  8742.28573895
 -2266.42317129 -1039.23543689 -2512.12376965 -2176.56440388
***************265380.38910000 16894.29357379 -4892.24358784
 65436.45165858-49772.95021574 -6087.37262951   484.96014564
 -2074.71617458219371.34255013106952.34024985 28137.18863954
-19676.85714534 18347.93854552  6110.76393098
 Total      moments (au):
     1.00000000    11.41534492    -0.03548597     0.39213113
   -19.92337282  -144.29048930  -134.30989526   -15.09368619
    -7.32488226     4.69414148  2325.90192351    25.33849811
     7.15376783   158.98538702    47.99994785    85.47640376
    28.87158716     2.30460464     0.02502557    -6.87838797
-42799.73328302-16491.23249097 -4668.71981276 -3537.17609999
  -977.59096655  -241.24917016   175.38520888    79.51433841
   112.37756823-14879.52341484-10459.76954230 -3394.68801467
  -355.89589375   -39.33269167   -71.10914406
 Charge=     1.0000 electrons
 Dipole moment (field-independent basis, Debye):
    X=    29.0149    Y=    -0.0902    Z=     0.9967  Tot=    29.0322
 Quadrupole moment (field-independent basis, Debye-Ang):
   XX=   -26.7976   YY=  -194.0756   ZZ=  -180.6514
   XY=   -20.3015   XZ=    -9.8522   YZ=     6.3138
 Traceless Quadrupole moment (field-independent basis, Debye-Ang):
   XX=   107.0439   YY=   -60.2341   ZZ=   -46.8098
   XY=   -20.3015   XZ=    -9.8522   YZ=     6.3138
 Octapole moment (field-independent basis, Debye-Ang**2):
  XXX=  1655.4873  YYY=    18.0350  ZZZ=     5.0918  XYY=   113.1597
  XXY=    34.1645  XXZ=    60.8388  XZZ=    20.5497  YZZ=     1.6403
  YYZ=     0.0178  XYZ=    -4.8958
 Hexadecapole moment (field-independent basis, Debye-Ang**3):
 XXXX=-16120.4305 YYYY= -6211.3884 ZZZZ= -1758.4636 XXXY= -1332.2700
 XXXZ=  -368.2076 YYYX=   -90.8660 YYYZ=    66.0585 ZZZX=    29.9489
 ZZZY=    42.3268 XXYY= -5604.3415 XXZZ= -3939.6504 YYZZ= -1278.6022
 XXYZ=  -134.0474 YYXZ=   -14.8146 ZZXY=   -26.7831
 N-N= 3.329587053122D+03 E-N=-9.885673325644D+03  KE= 1.391832816830D+03
 Entering OneElI...
 OneElI was handed  5091837 working-precision words.
 Calculate electrostatic properties
    NBasis =   582  MinDer = 0  MaxDer = 0
    NGrid  =    70  NMatD  =   1
 Requested accuracy = 0.1000D-12
 PrsmSu:  NPrtUS=   1 ThrOK=F
 PRISM was handed     4140357 working-precision words and 10126 shell-pairs
 --------------------------------------------------------
       Center         ----      EFG at Nuclei      ----
                      3XX-RR        3YY-RR        3ZZ-RR
 --------------------------------------------------------
     1   Atom        0.022896      0.002589     -0.025485
     2   Atom        0.062657      0.040659     -0.103316
     3   Atom        0.023760     -0.004735     -0.019025
     4   Atom        0.049690     -0.149476      0.099786
     5   Atom        1.123880     -0.492493     -0.631387
     6   Atom       -0.295173      0.063806      0.231367
     7   Atom       -0.156636      0.087119      0.069518
     8   Atom       -0.333347      0.119058      0.214289
     9   Atom       -0.211817      0.083786      0.128031
    10   Atom       -0.328320      0.165481      0.162839
    11   Atom       -0.158344      0.093149      0.065195
    12   Atom        0.154146      0.093706     -0.247851
    13   Atom        0.150853      0.151176     -0.302029
    14   Atom        0.060985      0.153206     -0.214192
    15   Atom        0.156000      0.132703     -0.288704
    16   Atom        0.141021      0.106083     -0.247104
    17   Atom       -0.049812      0.227983     -0.178172
    18   Atom       -0.491404      0.563946     -0.072542
    19   Atom        0.221035     -0.346736      0.125702
    20   Atom        0.065763      0.014975     -0.080738
    21   Atom       -0.929167     -0.571400      1.500567
    22   Atom        0.143850     -0.143051     -0.000799
    23   Atom        0.122998     -0.128576      0.005578
    24   Atom        0.140623     -0.116533     -0.024089
    25   Atom       -0.023020     -0.046869      0.069889
    26   Atom       -0.036072     -0.098682      0.134754
    27   Atom       -0.323294      0.179252      0.144042
    28   Atom        0.000079     -0.037490      0.037411
    29   Atom       -0.018518      0.059477     -0.040959
    30   Atom       -0.014230     -0.041356      0.055586
    31   Atom        0.235894      0.188330     -0.424225
    32   Atom        0.165024     -0.136972     -0.028053
    33   Atom        0.120609     -0.124856      0.004247
    34   Atom       -0.200835      0.118511      0.082325
    35   Atom       -0.011218      0.124952     -0.113735
    36   Atom        0.023373      0.080564     -0.103937
    37   Atom        0.049370     -0.147562      0.098192
    38   Atom       -0.201866      0.113740      0.088126
    39   Atom       -0.097129      0.003126      0.094003
    40   Atom       -0.010744      0.124545     -0.113800
    41   Atom        0.230932      0.149153     -0.380086
    42   Atom        0.175885      0.144332     -0.320217
    43   Atom        0.136886     -0.186507      0.049621
    44   Atom        0.137322     -0.147324      0.010002
    45   Atom        0.166166      0.148768     -0.314935
    46   Atom        0.149108     -0.183761      0.034652
    47   Atom        0.111437     -0.259270      0.147834
    48   Atom       -0.078026     -0.061131      0.139157
    49   Atom        0.122096     -0.280172      0.158077
    50   Atom        0.006886     -0.111249      0.104363
    51   Atom        0.011707     -0.156782      0.145076
    52   Atom       -0.075036      0.144256     -0.069220
    53   Atom        0.084511     -0.028257     -0.056254
    54   Atom       -0.001283      0.105204     -0.103922
    55   Atom        0.123088      0.134558     -0.257646
    56   Atom        0.130347     -0.177915      0.047568
    57   Atom        0.096920     -0.184804      0.087884
    58   Atom        0.128865      0.153731     -0.282596
    59   Atom        0.122043     -0.172097      0.050054
    60   Atom       -0.236797      0.121195      0.115602
    61   Atom       -0.003884     -0.112231      0.116115
    62   Atom        0.095305     -0.143522      0.048217
    63   Atom        0.104268     -0.191319      0.087050
    64   Atom        0.144211      0.146484     -0.290695
    65   Atom        0.135033     -0.176838      0.041806
    66   Atom       -0.230891      0.128334      0.102557
    67   Atom        0.080274     -0.031175     -0.049099
    68   Atom        0.005498      0.101064     -0.106561
    69   Atom        0.004136     -0.004400      0.000264
    70   Atom        0.148247     -0.229983      0.081736
 --------------------------------------------------------
                        XY            XZ            YZ
 --------------------------------------------------------
     1   Atom        0.021185      0.013155      0.062407
     2   Atom        0.072657      0.221906     -0.167352
     3   Atom       -0.046676      0.020823     -0.001634
     4   Atom       -0.071905     -0.002141     -0.135982
     5   Atom       -0.573781      0.049395     -0.018986
     6   Atom        0.119379      0.031846      0.164609
     7   Atom        0.087318     -0.015140     -0.026429
     8   Atom        0.157892     -0.021903     -0.009479
     9   Atom        0.103251     -0.006610      0.018486
    10   Atom        0.169598     -0.015075      0.014807
    11   Atom        0.078259     -0.018018     -0.019401
    12   Atom        0.026196     -0.064553      0.149543
    13   Atom        0.023637     -0.072784      0.113656
    14   Atom       -0.023854     -0.057473      0.103610
    15   Atom        0.036638     -0.066462      0.089172
    16   Atom        0.038122     -0.086533      0.097688
    17   Atom       -0.080409     -0.035747      0.158033
    18   Atom       -0.322822      0.185169     -0.645887
    19   Atom        0.225719     -0.207947      0.216611
    20   Atom        0.020748      0.052630     -0.011768
    21   Atom       -0.104627     -0.088750      0.854409
    22   Atom        0.127514     -0.098798      0.270717
    23   Atom        0.101943     -0.080052      0.221225
    24   Atom        0.135870     -0.070723      0.198158
    25   Atom        0.012575     -0.043272      0.177540
    26   Atom        0.256033     -0.141175      0.161570
    27   Atom       -0.123514      0.181631      0.036776
    28   Atom        0.086468     -0.038264      0.027646
    29   Atom       -0.024792      0.021273      0.009985
    30   Atom        0.070421     -0.036485      0.041767
    31   Atom       -0.000507      0.036524      0.065915
    32   Atom        0.111026     -0.089726      0.209407
    33   Atom        0.112794     -0.085267      0.221839
    34   Atom        0.105209     -0.129067      0.035405
    35   Atom        0.044947     -0.207107      0.061198
    36   Atom        0.096999      0.187209     -0.127094
    37   Atom       -0.175016     -0.069986     -0.118877
    38   Atom        0.115955     -0.149579      0.055872
    39   Atom        0.182852      0.120665     -0.092720
    40   Atom        0.052302     -0.206232      0.075817
    41   Atom       -0.028043      0.005964     -0.060209
    42   Atom       -0.009870      0.005796     -0.029783
    43   Atom       -0.105366     -0.053836     -0.183489
    44   Atom       -0.107125      0.067976      0.199244
    45   Atom       -0.004953      0.009270     -0.027886
    46   Atom       -0.103270     -0.051597     -0.188293
[...]
 **** Fit       0.091373
 **** Fit       0.090376
 **** Fit       0.089821
 **** Fit       0.089697
 **** Fit       0.090017
 **** Fit       0.090818
 **** Fit       0.094162
 **** Fit       0.096515
 **** Fit       0.104011
 **** Fit       0.100017
 **** Fit       0.096967
 **** Fit       0.094674
 **** Fit       0.093011
 **** Fit       0.091898
 **** Fit       0.091293
 **** Fit       0.091184
 **** Fit       0.091588
 **** Fit       0.092555
 **** Fit       0.096841
 **** Fit       0.109448
 **** Fit       0.104345
 **** Fit       0.100492
 **** Fit       0.097616
 **** Fit       0.095540
 **** Fit       0.094152
 **** Fit       0.093388
 **** Fit       0.093230
 **** Fit       0.093700
 **** Fit       0.094866
 **** Fit       0.100262
 **** Fit       0.110018
 **** Fit       0.105159
 **** Fit       0.101536
 **** Fit       0.098922
 **** Fit       0.097166
 **** Fit       0.096180
 **** Fit       0.095936
 **** Fit       0.096461
 **** Fit       0.097847
 **** Fit       0.108864
 **** Fit       0.104696
 **** Fit       0.101840
 **** Fit       0.100117
 **** Fit       0.099443
 **** Fit       0.099831
 **** Fit       0.103282
 **** Fit       0.099457
 **** Fit       0.101266
 **** Fit       0.105468
 **** Fit       0.108260
 **** Fit       0.101650
 **** Fit       0.096598
 **** Fit       0.097489
 **** Fit       0.100030
 **** Fit       0.103850
 **** Fit       0.108290
 **** Fit       0.112273
 **** Fit       0.097590
 **** Fit       0.094566
 **** Fit       0.095167
 **** Fit       0.096822
 **** Fit       0.099448
 **** Fit       0.102956
 **** Fit       0.107197
 **** Fit       0.111865
 **** Fit       0.116396
 **** Fit       0.095119
 **** Fit       0.093272
 **** Fit       0.093768
 **** Fit       0.095075
 **** Fit       0.097148
 **** Fit       0.099970
 **** Fit       0.103535
 **** Fit       0.107827
 **** Fit       0.112770
 **** Fit       0.118136
 **** Fit       0.093659
 **** Fit       0.092663
 **** Fit       0.093105
 **** Fit       0.094245
 **** Fit       0.096048
 **** Fit       0.098512
 **** Fit       0.101656
 **** Fit       0.105521
 **** Fit       0.110150
 **** Fit       0.115580
 **** Fit       0.092991
 **** Fit       0.092723
 **** Fit       0.093103
 **** Fit       0.094096
 **** Fit       0.095670
 **** Fit       0.097822
 **** Fit       0.100578
 **** Fit       0.103986
 **** Fit       0.108108
 **** Fit       0.113026
 **** Fit       0.118851
 **** Fit       0.093028
 **** Fit       0.093471
 **** Fit       0.093823
 **** Fit       0.094786
 **** Fit       0.096325
 **** Fit       0.098444
 **** Fit       0.101178
 **** Fit       0.104585
 **** Fit       0.108745
 **** Fit       0.113757
 **** Fit       0.119749
 **** Fit       0.094967
 **** Fit       0.095277
 **** Fit       0.096186
 **** Fit       0.097663
 **** Fit       0.099718
 **** Fit       0.102394
 **** Fit       0.105759
 **** Fit       0.109907
 **** Fit       0.114944
 **** Fit       0.120992
 **** Fit       0.128210
 **** Fit       0.097599
 **** Fit       0.098481
 **** Fit       0.099947
 **** Fit       0.102021
 **** Fit       0.104762
 **** Fit       0.108265
 **** Fit       0.112648
 **** Fit       0.118052
 **** Fit       0.101913
 **** Fit       0.103496
 **** Fit       0.105799
 **** Fit       0.108931
 **** Fit       0.113047
 **** Fit       0.118352
 **** Fit       0.108472
 **** Fit       0.111146
 **** Fit       0.114955
 **** Fit       0.101601
 **** Fit       0.100169
 **** Fit       0.105145
 **** Fit       0.102463
 **** Fit       0.100549
 **** Fit       0.099336
 **** Fit       0.098812
 **** Fit       0.099005
 **** Fit       0.110250
 **** Fit       0.106478
 **** Fit       0.103586
 **** Fit       0.101421
 **** Fit       0.099913
 **** Fit       0.099038
 **** Fit       0.098811
 **** Fit       0.099284
 **** Fit       0.100556
 **** Fit       0.117407
 **** Fit       0.112432
 **** Fit       0.108553
 **** Fit       0.105492
 **** Fit       0.103112
 **** Fit       0.101346
 **** Fit       0.100170
 **** Fit       0.099584
 **** Fit       0.099622
 **** Fit       0.100347
 **** Fit       0.101877
 **** Fit       0.104406
 **** Fit       0.117370
 **** Fit       0.112914
 **** Fit       0.109324
 **** Fit       0.106439
 **** Fit       0.104183
 **** Fit       0.102519
 **** Fit       0.101434
 **** Fit       0.100939
 **** Fit       0.101068
 **** Fit       0.101888
 **** Fit       0.103516
 **** Fit       0.106145
 **** Fit       0.123070
 **** Fit       0.117818
 **** Fit       0.113564
 **** Fit       0.110114
 **** Fit       0.107378
 **** Fit       0.105312
 **** Fit       0.103894
 **** Fit       0.103124
 **** Fit       0.103028
 **** Fit       0.103663
 **** Fit       0.105124
 **** Fit       0.107572
 **** Fit       0.127059
 **** Fit       0.121191
 **** Fit       0.116482
 **** Fit       0.112726
 **** Fit       0.109821
 **** Fit       0.107715
 **** Fit       0.106381
 **** Fit       0.105822
 **** Fit       0.106074
 **** Fit       0.107211
 **** Fit       0.109354
 **** Fit       0.132386
 **** Fit       0.125513
 **** Fit       0.120180
 **** Fit       0.116066
 **** Fit       0.113008
 **** Fit       0.110920
 **** Fit       0.109761
 **** Fit       0.109535
 **** Fit       0.110290
 **** Fit       0.112123
 **** Fit       0.115176
 **** Fit       0.129526
 **** Fit       0.123437
 **** Fit       0.119082
 **** Fit       0.116182
 **** Fit       0.114604
 **** Fit       0.114315
 **** Fit       0.115371
 **** Fit       0.133752
 **** Fit       0.127195
 **** Fit       0.123011
 **** Fit       0.120812
 **** Fit       0.120473
 **** Fit       0.133651
 **** Fit       0.129388
 **** Fit       0.096987
 **** Fit       0.096512
 **** Fit       0.098341
 **** Fit       0.099142
 **** Fit       0.097940
 **** Fit       0.096074
 **** Fit       0.095439
 **** Fit       0.096519
 **** Fit       0.098329
 **** Fit       0.100201
 **** Fit       0.101607
 **** Fit       0.102008
 **** Fit       0.101173
 **** Fit       0.099391
 **** Fit       0.097307
 **** Fit       0.095563
 **** Fit       0.094560
 **** Fit       0.094437
 **** Fit       0.095143
 **** Fit       0.097037
 **** Fit       0.098778
 **** Fit       0.100716
 **** Fit       0.102662
 **** Fit       0.104355
 **** Fit       0.105476
 **** Fit       0.105738
 **** Fit       0.105032
 **** Fit       0.103480
 **** Fit       0.101388
 **** Fit       0.099139
 **** Fit       0.097079
 **** Fit       0.095444
 **** Fit       0.094359
 **** Fit       0.093868
 **** Fit       0.093954
 **** Fit       0.094559
 **** Fit       0.095609
 **** Fit       0.098121
 **** Fit       0.099897
 **** Fit       0.101914
 **** Fit       0.104066
 **** Fit       0.106212
 **** Fit       0.108177
 **** Fit       0.109708
 **** Fit       0.110516
 **** Fit       0.110416
 **** Fit       0.109400
 **** Fit       0.107608
 **** Fit       0.105281
 **** Fit       0.102722
 **** Fit       0.100226
 **** Fit       0.098015
 **** Fit       0.096222
 **** Fit       0.094909
 **** Fit       0.094097
 **** Fit       0.093780
 **** Fit       0.093929
 **** Fit       0.094495
 **** Fit       0.095412
 **** Fit       0.096626
 **** Fit       0.099848
 **** Fit       0.101721
 **** Fit       0.103902
 **** Fit       0.106290
 **** Fit       0.108750
 **** Fit       0.111200
 **** Fit       0.113520
 **** Fit       0.115442
 **** Fit       0.116604
 **** Fit       0.114208
 **** Fit       0.111790
 **** Fit       0.108905
 **** Fit       0.105855
 **** Fit       0.102928
 **** Fit       0.100326
 **** Fit       0.098156
 **** Fit       0.096458
 **** Fit       0.095242
 **** Fit       0.094500
 **** Fit       0.094219
 **** Fit       0.094375
 **** Fit       0.094924
 **** Fit       0.095801
 **** Fit       0.096933
 **** Fit       0.098274
 **** Fit       0.113511
 **** Fit       0.109876
 **** Fit       0.106446
 **** Fit       0.103415
 **** Fit       0.100864
 **** Fit       0.098806
 **** Fit       0.097230
 **** Fit       0.096114
 **** Fit       0.095445
 **** Fit       0.095209
 **** Fit       0.095393
 **** Fit       0.095966
 **** Fit       0.096874
 **** Fit       0.098029
 **** Fit       0.099331
 **** Fit       0.110612
 **** Fit       0.106926
 **** Fit       0.103885
 **** Fit       0.101452
 **** Fit       0.099574
 **** Fit       0.098202
 **** Fit       0.097309
 **** Fit       0.096881
 **** Fit       0.096916
 **** Fit       0.097410
 **** Fit       0.098338
 **** Fit       0.099631
 **** Fit       0.115591
 **** Fit       0.115971
 **** Fit       0.114182
 **** Fit       0.114193
 **** Fit       0.115788
 **** Fit       0.116914
 **** Fit       0.114817
 **** Fit       0.113581
 **** Fit       0.113270
 **** Fit       0.113787
 **** Fit       0.114942
 **** Fit       0.118482
 **** Fit       0.116302
 **** Fit       0.114702
 **** Fit       0.113729
 **** Fit       0.113380
 **** Fit       0.113605
 **** Fit       0.114309
 **** Fit       0.115352
 **** Fit       0.116615
 **** Fit       0.118528
 **** Fit       0.116642
 **** Fit       0.115298
 **** Fit       0.114505
 **** Fit       0.114237
 **** Fit       0.114458
 **** Fit       0.115116
 **** Fit       0.116119
 **** Fit       0.117309
 **** Fit       0.118514
 **** Fit       0.119438
 **** Fit       0.117717
 **** Fit       0.116576
 **** Fit       0.115965
 **** Fit       0.115847
 **** Fit       0.116199
 **** Fit       0.116990
 **** Fit       0.118170
 **** Fit       0.119613
 **** Fit       0.121051
 **** Fit       0.121187
 **** Fit       0.119675
 **** Fit       0.118723
 **** Fit       0.118268
 **** Fit       0.118287
 **** Fit       0.118771
 **** Fit       0.119709
 **** Fit       0.121090
 **** Fit       0.122875
 **** Fit       0.123573
 **** Fit       0.122351
 **** Fit       0.121672
 **** Fit       0.121523
 **** Fit       0.121914
 **** Fit       0.122840
 **** Fit       0.124296
 **** Fit       0.126309
 **** Fit       0.128780
 **** Fit       0.127260
 **** Fit       0.126287
 **** Fit       0.125893
 **** Fit       0.126131
 **** Fit       0.127021
 **** Fit       0.128537
 **** Fit       0.131655
 **** Fit       0.131798
 **** Fit       0.113531
 **** Fit       0.111435
 **** Fit       0.111106
 **** Fit       0.112815
 **** Fit       0.114499
 **** Fit       0.111591
 **** Fit       0.109581
 **** Fit       0.108796
 **** Fit       0.109324
 **** Fit       0.111145
 **** Fit       0.115281
 **** Fit       0.111824
 **** Fit       0.109087
 **** Fit       0.107452
 **** Fit       0.107008
 **** Fit       0.107645
 **** Fit       0.109235
 **** Fit       0.111760
 **** Fit       0.105899
 **** Fit       0.105389
 **** Fit       0.105934
 **** Fit       0.107287
 **** Fit       0.109330
 **** Fit       0.112071
 **** Fit       0.103595
 **** Fit       0.104368
 **** Fit       0.105803
 **** Fit       0.107730
 **** Fit       0.110118
 **** Fit       0.102875
 **** Fit       0.104910
 **** Fit       0.107226
 **** Fit       0.109836
 **** Fit       0.112818
 **** Fit       0.104157
 **** Fit       0.107054
 **** Fit       0.110040
 **** Fit       0.113263
 **** Fit       0.105825
 **** Fit       0.109429
 **** Fit       0.113063
 **** Fit       0.116944
 **** Fit       0.109785
 **** Fit       0.114324
 **** Fit       0.119016
 **** Fit       0.119601
 **** Fit       0.125787
 **** Fit       0.101878
 **** Fit       0.105633
 **** Fit       0.102441
 **** Fit       0.099407
 **** Fit       0.099217
 **** Fit       0.101477
 **** Fit       0.104929
 **** Fit       0.110547
 **** Fit       0.107366
 **** Fit       0.103200
 **** Fit       0.099552
 **** Fit       0.097342
 **** Fit       0.096857
 **** Fit       0.097669
 **** Fit       0.099041
 **** Fit       0.101173
 **** Fit       0.104721
 **** Fit       0.108782
 **** Fit       0.111172
 **** Fit       0.116761
 **** Fit       0.113232
 **** Fit       0.108721
 **** Fit       0.104173
 **** Fit       0.100228
 **** Fit       0.097275
 **** Fit       0.095549
 **** Fit       0.095152
 **** Fit       0.095952
 **** Fit       0.113745
 **** Fit       0.117243
 **** Fit       0.118288
 **** Fit       0.120168
 **** Fit       0.114895
 **** Fit       0.109534
 **** Fit       0.104603
 **** Fit       0.100399
 **** Fit       0.097094
 **** Fit       0.094814
 **** Fit       0.093675
 **** Fit       0.093787
 **** Fit       0.121980
 **** Fit       0.115522
 **** Fit       0.109564
 **** Fit       0.104329
 **** Fit       0.099932
 **** Fit       0.096434
 **** Fit       0.093889
 **** Fit       0.092386
 **** Fit       0.092071
 **** Fit       0.093149
 **** Fit       0.122900
 **** Fit       0.115841
 **** Fit       0.109572
 **** Fit       0.104165
 **** Fit       0.099634
 **** Fit       0.095971
 **** Fit       0.093180
 **** Fit       0.091310
 **** Fit       0.090482
 **** Fit       0.090921
 **** Fit       0.121698
 **** Fit       0.114113
 **** Fit       0.107591
 **** Fit       0.102106
 **** Fit       0.097590
 **** Fit       0.093984
 **** Fit       0.091267
 **** Fit       0.089495
 **** Fit       0.088822
 **** Fit       0.112015
 **** Fit       0.105467
 **** Fit       0.100051
 **** Fit       0.095629
 **** Fit       0.092105
 **** Fit       0.089449
 **** Fit       0.087719
 **** Fit       0.108426
 **** Fit       0.102114
 **** Fit       0.096961
 **** Fit       0.092786
 **** Fit       0.089489
 **** Fit       0.108927
 **** Fit       0.101912
 **** Fit       0.096264
 **** Fit       0.084445
 **** Fit       0.087528
 **** Fit       0.086358
 **** Fit       0.083467
 **** Fit       0.081897
 **** Fit       0.082665
 **** Fit       0.085380
 **** Fit       0.091308
 **** Fit       0.090934
 **** Fit       0.088461
 **** Fit       0.085209
 **** Fit       0.082405
 **** Fit       0.080556
 **** Fit       0.079706
 **** Fit       0.079813
 **** Fit       0.080954
 **** Fit       0.083201
 **** Fit       0.086291
 **** Fit       0.089415
 **** Fit       0.096076
 **** Fit       0.094150
 **** Fit       0.090805
 **** Fit       0.087094
 **** Fit       0.083787
 **** Fit       0.081204
 **** Fit       0.079373
 **** Fit       0.078217
 **** Fit       0.077654
 **** Fit       0.077607
 **** Fit       0.078085
 **** Fit       0.079232
 **** Fit       0.081162
 **** Fit       0.083861
 **** Fit       0.087171
 **** Fit       0.092656
 **** Fit       0.088236
 **** Fit       0.084437
 **** Fit       0.081410
 **** Fit       0.079107
 **** Fit       0.077404
 **** Fit       0.076222
 **** Fit       0.075567
 **** Fit       0.075374
 **** Fit       0.075494
 **** Fit       0.075949
 **** Fit       0.076923
 **** Fit       0.078555
 **** Fit       0.080864
 **** Fit       0.093420
 **** Fit       0.088279
 **** Fit       0.084073
 **** Fit       0.080745
 **** Fit       0.078149
 **** Fit       0.076088
 **** Fit       0.074399
 **** Fit       0.073141
 **** Fit       0.072567
 **** Fit       0.073924
 **** Fit       0.075272
 **** Fit       0.077270
 **** Fit       0.087937
 **** Fit       0.083466
 **** Fit       0.079919
 **** Fit       0.077084
 **** Fit       0.074723
 **** Fit       0.072542
 **** Fit       0.084818
 **** Fit       0.080518
 **** Fit       0.077086
 **** Fit       0.074268
 **** Fit       0.071736
 **** Fit       0.081384
 **** Fit       0.077460
 **** Fit       0.074288
 **** Fit       0.071671
 **** Fit       0.073815
 **** Fit       0.132347
 **** Fit       0.132023
 **** Fit       0.131631
 **** Fit       0.134175
 **** Fit       0.132794
 **** Fit       0.134813
 **** Fit       0.136892
 **** Fit       0.139250
 **** Fit       0.133684
 **** Fit       0.135336
 **** Fit       0.137258
 **** Fit       0.139694
 **** Fit       0.133961
 **** Fit       0.134991
 **** Fit       0.136357
 **** Fit       0.138232
 **** Fit       0.136217
 **** Fit       0.137119
 **** Fit       0.138761
 **** Fit       0.138551
 **** Fit       0.139862
 **** Fit       0.142169
 **** Fit       0.140656
 **** Fit       0.141260
 **** Fit       0.143271
 **** Fit       0.143401
 **** Fit       0.144803
 **** Fit       0.147253
 -----------------------------------------------------------------
 Leave Link  602 at Thu Sep 24 03:04:49 2015, MaxMem=    6291456 cpu:      22.1

 Test job not archived.
 1\1\GINC-COMPUTE-1-3\FOpt\RHF\6-31G(d)\C30H36N3O1(1+)\SHUNZHOU\24-Sep-
 2015\0\\#HF/6-31G* SCF=tight Test Pop=MK iop(6/33=2) iop(6/42=6) opt\\
 remark line goes here\\1,1\C,15.0380198262,5.9660479069,9.9983623218\C
 ,14.0720256595,5.0530690093,9.2490162026\C,14.8099648737,4.0932291326,
 8.2964448243\C,14.0703673819,2.7596376034,8.1391294127\N,14.7333334536
 ,1.9166230692,7.1666593518\C,14.0189590476,1.0640570714,6.3192344829\C
 ,14.5903228523,0.6800410477,5.1040786789\C,13.9289129493,-0.1861980367
 ,4.257209404\C,12.6818820833,-0.6940903662,4.5939183969\C,12.11543924,
 -0.3181962597,5.7970689904\C,12.7714008777,0.5484904751,6.6594928041\C
 ,14.0220729872,2.1534339023,9.5302558265\C,14.4462422312,0.8754138817,
 9.8364591094\C,14.4335235401,0.4073280698,11.1493211556\C,14.020492504
 8,1.2684265101,12.1589251186\C,13.624810955,2.5617240976,11.867070353\
 C,13.5929972423,3.0001965737,10.5522237986\N,13.2011468039,4.305004969
 7,10.1829513746\C,12.0413454696,4.9259662438,10.5858339053\C,10.995971
 2235,4.1310976336,11.3428731941\O,11.8391026814,6.0760119086,10.315431
 3606\C,14.8701399387,-0.9803354362,11.4607133795\C,14.1743029302,-1.76
 13799039,12.3847654817\C,14.5722509915,-3.0537853586,12.6660266582\C,1
 5.6855526899,-3.6060204317,12.0402478223\C,16.10525543,-5.0159726499,1
 2.3535414749\C,16.9300858419,-6.5414112269,14.1549605948\C,17.57956167
 96,-6.6167817486,15.531854177\C,18.9538906227,-5.9468221164,15.5445770
 878\C,18.8510408524,-4.5145038258,15.0200369275\C,18.1941215145,-4.465
 8571311,13.6458709382\C,16.3767048115,-2.838693382,11.1116539823\C,15.
 9764635238,-1.54530822,10.8287524476\H,13.4026417083,5.6645468586,8.66
 56542019\H,13.0541673897,2.9733812696,7.8151779079\H,15.6664467679,6.5
 070660553,9.2969536284\H,14.4915865441,6.687874663,10.5906726924\H,15.
 6840297729,5.3887706631,10.6535191982\H,14.9163399608,4.5818023205,7.3
 328313963\H,15.8102770977,3.8838155547,8.6653433589\H,15.4837860359,2.
 3761455629,6.6998793712\H,15.554987897,1.068968407,4.8250801809\H,14.3
 877381952,-0.4608799046,3.3239962302\H,12.166077071,-1.3629911183,3.92
 9859234\H,11.1491793934,-0.6987679041,6.0776859499\H,12.3088281518,0.8
 106007272,7.5923729265\H,14.7655920563,0.2365513143,9.0360363175\H,14.
 0447578661,0.9502321481,13.1856666177\H,13.3588864665,3.2308163629,12.
 6631492282\H,10.9730178815,3.0836207648,11.0771426767\H,11.1650840073,
 4.2123302786,12.410738249\H,10.0417143491,4.588321889,11.1243828058\H,
 13.2948807461,-1.3667283267,12.8581713633\H,13.9875838279,-3.641478656
 2,13.3553918709\H,15.2476845429,-5.6683551853,12.440395291\H,16.769369
 0281,-5.422690986,11.6044607463\H,17.5055324505,-7.0775635345,13.41146
 41028\H,15.9257748075,-6.9407184833,14.1649519145\H,16.9267727173,-6.1
 480889102,16.2645858602\H,17.6533092748,-7.6623707626,15.8071993132\H,
 19.3570572017,-5.9475834558,16.5496843283\H,19.6446338566,-6.514816641
 7,14.9269794229\H,18.2844846938,-3.8982927846,15.714323788\H,19.831468
 3661,-4.0607129123,14.9340705759\H,18.7735386419,-5.0081665388,12.9096
 496799\H,18.0522809075,-3.45384318,13.3012562251\H,17.2297090909,-3.24
 78653003,10.5980100932\H,16.5352144101,-0.9670454721,10.1172510201\N,1
 6.8391270189,-5.119497722,13.676518122\H,16.2847350944,-4.6088300732,1
 4.3475330727\\Version=AM64L-G03RevD.02\State=1-A\HF=-1395.0686065\RMSD
 =7.628e-09\RMSF=3.570e-06\Thermal=0.\Dipole=4.3132755,-8.7762571,5.418
 1403\PG=C01 [X(C30H36N3O1)]\\@


 ... UNTIL SCIENCE IS MIXED WITH EMOTION AND APPEALS TO THE HEART AND
 IMAGINATION , IT IS LIKE DEAD INORGANIC MATTER; AND WHEN IT IS SO MIXED
 AND SO TRANSFORMED IT IS LITERATURE.

                                  -- JOHN BURROUGHS
 Job cpu time:  0 days  8 hours 52 minutes 35.4 seconds.
 File lengths (MBytes):  RWF=    221 Int=      0 D2E=      0 Chk=     31 Scr=      1
 Normal termination of Gaussian 03 at Thu Sep 24 03:04:49 2015.
