 Entering Gaussian System, Link 0=g03
 Initial command:
 /share/apps//g03/l1.exe /state/partition1/mmpbsa.ZW9436/Gau-9448.inp -scrdir=/state/partition1/mmpbsa.ZW9436/
 Entering Link 1 = /share/apps//g03/l1.exe PID=      9450.
  
 Copyright (c) 1988,1990,1992,1993,1995,1998,2003,2004, Gaussian, Inc.
                  All Rights Reserved.
  
 This is the Gaussian(R) 03 program.  It is based on the
 the Gaussian(R) 98 system (copyright 1998, Gaussian, Inc.),
 the Gaussian(R) 94 system (copyright 1995, Gaussian, Inc.),
 the Gaussian 92(TM) system (copyright 1992, Gaussian, Inc.),
 the Gaussian 90(TM) system (copyright 1990, Gaussian, Inc.),
 the Gaussian 88(TM) system (copyright 1988, Gaussian, Inc.),
 the Gaussian 86(TM) system (copyright 1986, Carnegie Mellon
 University), and the Gaussian 82(TM) system (copyright 1983,
 Carnegie Mellon University). Gaussian is a federally registered
 trademark of Gaussian, Inc.
  
 This software contains proprietary and confidential information,
 including trade secrets, belonging to Gaussian, Inc.
  
 This software is provided under written license and may be
 used, copied, transmitted, or stored only in accord with that
 written license.
  
 The following legend is applicable only to US Government
 contracts under FAR:
  
                    RESTRICTED RIGHTS LEGEND
  
 Use, reproduction and disclosure by the US Government is
 subject to restrictions as set forth in subparagraphs (a)
 and (c) of the Commercial Computer Software - Restricted
 Rights clause in FAR 52.227-19.
  
 Gaussian, Inc.
 340 Quinnipiac St., Bldg. 40, Wallingford CT 06492
  
  
 ---------------------------------------------------------------
 Warning -- This program may not be used in any manner that
 competes with the business of Gaussian, Inc. or will provide
 assistance to any competitor of Gaussian, Inc.  The licensee
 of this program is prohibited from giving any competitor of
 Gaussian, Inc. access to this program.  By using this program,
 the user acknowledges that Gaussian, Inc. is engaged in the
 business of creating and licensing software in the field of
 computational chemistry and represents and warrants to the
 licensee that it is not a competitor of Gaussian, Inc. and that
 it will not use this program in any manner prohibited above.
 ---------------------------------------------------------------
  

 Cite this work as:
 Gaussian 03, Revision D.02,
 M. J. Frisch, G. W. Trucks, H. B. Schlegel, G. E. Scuseria, 
 M. A. Robb, J. R. Cheeseman, J. A. Montgomery, Jr., T. Vreven, 
 K. N. Kudin, J. C. Burant, J. M. Millam, S. S. Iyengar, J. Tomasi, 
 V. Barone, B. Mennucci, M. Cossi, G. Scalmani, N. Rega, 
 G. A. Petersson, H. Nakatsuji, M. Hada, M. Ehara, K. Toyota, 
 R. Fukuda, J. Hasegawa, M. Ishida, T. Nakajima, Y. Honda, O. Kitao, 
 H. Nakai, M. Klene, X. Li, J. E. Knox, H. P. Hratchian, J. B. Cross, 
 V. Bakken, C. Adamo, J. Jaramillo, R. Gomperts, R. E. Stratmann, 
 O. Yazyev, A. J. Austin, R. Cammi, C. Pomelli, J. W. Ochterski, 
 P. Y. Ayala, K. Morokuma, G. A. Voth, P. Salvador, J. J. Dannenberg, 
 V. G. Zakrzewski, S. Dapprich, A. D. Daniels, M. C. Strain, 
 O. Farkas, D. K. Malick, A. D. Rabuck, K. Raghavachari, 
 J. B. Foresman, J. V. Ortiz, Q. Cui, A. G. Baboul, S. Clifford, 
 J. Cioslowski, B. B. Stefanov, G. Liu, A. Liashenko, P. Piskorz, 
 I. Komaromi, R. L. Martin, D. J. Fox, T. Keith, M. A. Al-Laham, 
 C. Y. Peng, A. Nanayakkara, M. Challacombe, P. M. W. Gill, 
 B. Johnson, W. Chen, M. W. Wong, C. Gonzalez, and J. A. Pople, 
 Gaussian, Inc., Wallingford CT, 2004.
 
 ******************************************
 Gaussian 03:  AM64L-G03RevD.02  1-Mar-2006
                23-Sep-2015 
 ******************************************
 %chk=molecule
 ------------------------------------------------------------
 #HF/6-31G* SCF=tight Test Pop=MK iop(6/33=2) iop(6/42=6) opt
 ------------------------------------------------------------
 1/18=20,38=1/1,3;
 2/9=110,17=6,18=5,40=1/2;
 3/5=1,6=6,7=1,11=9,16=1,25=1,30=1/1,2,3;
 4//1;
 5/5=2,32=2,38=5/2;
 6/7=2,8=2,9=2,10=2,15=8,20=1,28=1,33=2,42=6/1,2;
 7//1,2,3,16;
 1/18=20/3(3);
 2/9=110/2;
 6/7=2,8=2,9=2,10=2,15=8,19=2,20=1,28=1,33=2,42=6/1,2;
 99//99;
 2/9=110/2;
 3/5=1,6=6,7=1,11=9,16=1,25=1,30=1/1,2,3;
 4/5=5,16=3/1;
 5/5=2,32=2,38=5/2;
 7//1,2,3,16;
 1/18=20/3(-5);
 2/9=110/2;
 6/7=2,8=2,9=2,10=2,15=8,19=2,20=1,28=1,33=2,42=6/1,2;
 99/9=1/99;
 ---------------------
 remark line goes here
 ---------------------
 Symbolic Z-matrix:
 Charge =  0 Multiplicity = 1
 C                     14.906    6.246     9.856 
 C                     13.962    5.21      9.216 
 C                     14.741    4.27      8.258 
 C                     14.083    2.891     8.12 
 N                     14.778    2.086     7.117 
 C                     14.181    0.993     6.47 
 C                     12.866    0.553     6.753 
 C                     12.323   -0.554     6.072 
 C                     13.085   -1.232     5.102 
 C                     14.393   -0.8       4.815 
 C                     14.937    0.306     5.497 
 C                     14.       2.296     9.523 
 C                     14.393    0.969     9.814 
 C                     14.367    0.466     11.133 
 C                     13.958    1.333     12.169 
 C                     13.571    2.657     11.896 
 C                     13.559    3.142     10.567 
 N                     13.175    4.489     10.252 
 C                     12.02     5.06      10.707 
 C                     10.986    4.227     11.47 
 O                     11.732    6.245     10.498 
 C                     14.773   -0.925     11.423 
 C                     14.088   -1.694     12.393 
 C                     14.471   -3.02      12.671 
 C                     15.55    -3.601     11.981 
 C                     16.243   -2.852     11.013 
 C                     15.855   -1.525     10.738 
 H                     13.26     5.747     8.575 
 H                     13.062    3.058     7.771 
 H                     15.629    5.767     10.518 
 H                     15.465    6.79      9.094 
 H                     14.359    6.983     10.444 
 H                     14.84     4.75      7.283 
 H                     15.757    4.132     8.631 
 H                     15.727    2.351     6.874 
 H                     12.255    1.041     7.498 
 H                     11.319   -0.885     6.298 
 H                     12.667   -2.082     4.58 
 H                     14.983   -1.318     4.072 
 H                     15.944    0.621     5.262 
 H                     14.724    0.322     9.017 
 H                     13.955    0.989     13.194 
 H                     13.295    3.297     12.722 
 H                     11.225    4.189     12.532 
 H                     10.918    3.211     11.081 
 H                     9.997     4.675     11.372 
 H                     13.251   -1.268     12.928 
 H                     13.934   -3.593     13.415 
 H                     15.846   -4.62      12.193 
 H                     17.074   -3.292     10.48 
 H                     16.406   -0.963     9.997 
 

 GradGradGradGradGradGradGradGradGradGradGradGradGradGradGradGradGradGrad
 Berny optimization.
 Initialization pass.
                           ----------------------------
                           !    Initial Parameters    !
                           ! (Angstroms and Degrees)  !
 --------------------------                            --------------------------
 ! Name  Definition              Value          Derivative Info.                !
 --------------------------------------------------------------------------------
 ! R1    R(1,2)                  1.5408         estimate D2E/DX2                !
 ! R2    R(1,30)                 1.0911         estimate D2E/DX2                !
 ! R3    R(1,31)                 1.0904         estimate D2E/DX2                !
 ! R4    R(1,32)                 1.09           estimate D2E/DX2                !
 ! R5    R(2,3)                  1.5518         estimate D2E/DX2                !
 ! R6    R(2,18)                 1.4874         estimate D2E/DX2                !
 ! R7    R(2,28)                 1.0918         estimate D2E/DX2                !
 ! R8    R(3,4)                  1.5342         estimate D2E/DX2                !
 ! R9    R(3,33)                 1.0912         estimate D2E/DX2                !
 ! R10   R(3,34)                 1.0911         estimate D2E/DX2                !
 ! R11   R(4,5)                  1.4619         estimate D2E/DX2                !
 ! R12   R(4,12)                 1.5262         estimate D2E/DX2                !
 ! R13   R(4,29)                 1.0918         estimate D2E/DX2                !
 ! R14   R(5,6)                  1.4034         estimate D2E/DX2                !
 ! R15   R(5,35)                 1.0148         estimate D2E/DX2                !
 ! R16   R(6,7)                  1.4152         estimate D2E/DX2                !
 ! R17   R(6,11)                 1.4108         estimate D2E/DX2                !
 ! R18   R(7,8)                  1.4086         estimate D2E/DX2                !
 ! R19   R(7,36)                 1.08           estimate D2E/DX2                !
 ! R20   R(8,9)                  1.4076         estimate D2E/DX2                !
 ! R21   R(8,37)                 1.081          estimate D2E/DX2                !
 ! R22   R(9,10)                 1.4071         estimate D2E/DX2                !
 ! R23   R(9,38)                 1.0815         estimate D2E/DX2                !
 ! R24   R(10,11)                1.4087         estimate D2E/DX2                !
 ! R25   R(10,39)                1.081          estimate D2E/DX2                !
 ! R26   R(11,40)                1.081          estimate D2E/DX2                !
 ! R27   R(12,13)                1.4142         estimate D2E/DX2                !
 ! R28   R(12,17)                1.4143         estimate D2E/DX2                !
 ! R29   R(13,14)                1.4119         estimate D2E/DX2                !
 ! R30   R(13,41)                1.0786         estimate D2E/DX2                !
 ! R31   R(14,15)                1.4115         estimate D2E/DX2                !
 ! R32   R(14,22)                1.4778         estimate D2E/DX2                !
 ! R33   R(15,16)                1.4062         estimate D2E/DX2                !
 ! R34   R(15,42)                1.0812         estimate D2E/DX2                !
 ! R35   R(16,17)                1.4148         estimate D2E/DX2                !
 ! R36   R(16,43)                1.0808         estimate D2E/DX2                !
 ! R37   R(17,18)                1.4356         estimate D2E/DX2                !
 ! R38   R(18,19)                1.3664         estimate D2E/DX2                !
 ! R39   R(19,20)                1.5314         estimate D2E/DX2                !
 ! R40   R(19,21)                1.2373         estimate D2E/DX2                !
 ! R41   R(20,44)                1.0892         estimate D2E/DX2                !
 ! R42   R(20,45)                1.09           estimate D2E/DX2                !
 ! R43   R(20,46)                1.0902         estimate D2E/DX2                !
 ! R44   R(22,23)                1.4147         estimate D2E/DX2                !
 ! R45   R(22,27)                1.4142         estimate D2E/DX2                !
 ! R46   R(23,24)                1.4079         estimate D2E/DX2                !
 ! R47   R(23,47)                1.0809         estimate D2E/DX2                !
 ! R48   R(24,25)                1.4064         estimate D2E/DX2                !
 ! R49   R(24,48)                1.0818         estimate D2E/DX2                !
 ! R50   R(25,26)                1.4065         estimate D2E/DX2                !
 ! R51   R(25,49)                1.0821         estimate D2E/DX2                !
 ! R52   R(26,27)                1.4096         estimate D2E/DX2                !
 ! R53   R(26,50)                1.0809         estimate D2E/DX2                !
 ! R54   R(27,51)                1.081          estimate D2E/DX2                !
 ! A1    A(2,1,30)             111.274          estimate D2E/DX2                !
 ! A2    A(2,1,31)             111.0545         estimate D2E/DX2                !
 ! A3    A(2,1,32)             111.7919         estimate D2E/DX2                !
 ! A4    A(30,1,31)            107.6567         estimate D2E/DX2                !
 ! A5    A(30,1,32)            107.5823         estimate D2E/DX2                !
 ! A6    A(31,1,32)            107.2719         estimate D2E/DX2                !
 ! A7    A(1,2,3)              110.8642         estimate D2E/DX2                !
 ! A8    A(1,2,18)             111.1479         estimate D2E/DX2                !
 ! A9    A(1,2,28)             107.8837         estimate D2E/DX2                !
 ! A10   A(3,2,18)             113.7003         estimate D2E/DX2                !
 ! A11   A(3,2,28)             104.9663         estimate D2E/DX2                !
 ! A12   A(18,2,28)            107.8862         estimate D2E/DX2                !
 ! A13   A(2,3,4)              112.6251         estimate D2E/DX2                !
 ! A14   A(2,3,33)             109.3094         estimate D2E/DX2                !
 ! A15   A(2,3,34)             109.4519         estimate D2E/DX2                !
 ! A16   A(4,3,33)             110.7271         estimate D2E/DX2                !
 ! A17   A(4,3,34)             108.4485         estimate D2E/DX2                !
 ! A18   A(33,3,34)            106.0576         estimate D2E/DX2                !
 ! A19   A(3,4,5)              110.6576         estimate D2E/DX2                !
 ! A20   A(3,4,12)             106.9215         estimate D2E/DX2                !
 ! A21   A(3,4,29)             106.998          estimate D2E/DX2                !
 ! A22   A(5,4,12)             116.2248         estimate D2E/DX2                !
 ! A23   A(5,4,29)             108.0283         estimate D2E/DX2                !
 ! A24   A(12,4,29)            107.6145         estimate D2E/DX2                !
 ! A25   A(4,5,6)              122.8828         estimate D2E/DX2                !
 ! A26   A(4,5,35)             117.7151         estimate D2E/DX2                !
 ! A27   A(6,5,35)             119.3909         estimate D2E/DX2                !
 ! A28   A(5,6,7)              123.0379         estimate D2E/DX2                !
 ! A29   A(5,6,11)             117.986          estimate D2E/DX2                !
 ! A30   A(7,6,11)             118.9759         estimate D2E/DX2                !
 ! A31   A(6,7,8)              120.3881         estimate D2E/DX2                !
 ! A32   A(6,7,36)             121.5409         estimate D2E/DX2                !
 ! A33   A(8,7,36)             118.0672         estimate D2E/DX2                !
 ! A34   A(7,8,9)              120.2014         estimate D2E/DX2                !
 ! A35   A(7,8,37)             119.8404         estimate D2E/DX2                !
 ! A36   A(9,8,37)             119.958          estimate D2E/DX2                !
 ! A37   A(8,9,10)             119.7304         estimate D2E/DX2                !
 ! A38   A(8,9,38)             120.1289         estimate D2E/DX2                !
 ! A39   A(10,9,38)            120.1407         estimate D2E/DX2                !
 ! A40   A(9,10,11)            120.0859         estimate D2E/DX2                !
 ! A41   A(9,10,39)            120.03           estimate D2E/DX2                !
 ! A42   A(11,10,39)           119.8839         estimate D2E/DX2                !
 ! A43   A(6,11,10)            120.6183         estimate D2E/DX2                !
 ! A44   A(6,11,40)            120.4805         estimate D2E/DX2                !
 ! A45   A(10,11,40)           118.9012         estimate D2E/DX2                !
 ! A46   A(4,12,13)            122.6733         estimate D2E/DX2                !
 ! A47   A(4,12,17)            117.5389         estimate D2E/DX2                !
 ! A48   A(13,12,17)           119.7391         estimate D2E/DX2                !
 ! A49   A(12,13,14)           121.4258         estimate D2E/DX2                !
 ! A50   A(12,13,41)           119.7413         estimate D2E/DX2                !
 ! A51   A(14,13,41)           118.8326         estimate D2E/DX2                !
 ! A52   A(13,14,15)           118.1769         estimate D2E/DX2                !
 ! A53   A(13,14,22)           120.9046         estimate D2E/DX2                !
 ! A54   A(15,14,22)           120.9142         estimate D2E/DX2                !
 ! A55   A(14,15,16)           121.0383         estimate D2E/DX2                !
 ! A56   A(14,15,42)           120.0799         estimate D2E/DX2                !
 ! A57   A(16,15,42)           118.8731         estimate D2E/DX2                !
 ! A58   A(15,16,17)           120.4967         estimate D2E/DX2                !
 ! A59   A(15,16,43)           118.6513         estimate D2E/DX2                !
 ! A60   A(17,16,43)           120.8482         estimate D2E/DX2                !
 ! A61   A(12,17,16)           119.06           estimate D2E/DX2                !
 ! A62   A(12,17,18)           118.8613         estimate D2E/DX2                !
 ! A63   A(16,17,18)           122.0067         estimate D2E/DX2                !
 ! A64   A(2,18,17)            117.7809         estimate D2E/DX2                !
 ! A65   A(2,18,19)            118.4635         estimate D2E/DX2                !
 ! A66   A(17,18,19)           123.0319         estimate D2E/DX2                !
 ! A67   A(18,19,20)           120.6192         estimate D2E/DX2                !
 ! A68   A(18,19,21)           122.7335         estimate D2E/DX2                !
 ! A69   A(20,19,21)           116.6128         estimate D2E/DX2                !
 ! A70   A(19,20,44)           110.8918         estimate D2E/DX2                !
 ! A71   A(19,20,45)           111.7965         estimate D2E/DX2                !
 ! A72   A(19,20,46)           110.1343         estimate D2E/DX2                !
 ! A73   A(44,20,45)           109.2152         estimate D2E/DX2                !
 ! A74   A(44,20,46)           107.5206         estimate D2E/DX2                !
 ! A75   A(45,20,46)           107.1192         estimate D2E/DX2                !
 ! A76   A(14,22,23)           120.8753         estimate D2E/DX2                !
 ! A77   A(14,22,27)           120.9643         estimate D2E/DX2                !
 ! A78   A(23,22,27)           118.1603         estimate D2E/DX2                !
 ! A79   A(22,23,24)           121.0377         estimate D2E/DX2                !
 ! A80   A(22,23,47)           120.0056         estimate D2E/DX2                !
 ! A81   A(24,23,47)           118.9546         estimate D2E/DX2                !
 ! A82   A(23,24,25)           120.0604         estimate D2E/DX2                !
 ! A83   A(23,24,48)           119.9753         estimate D2E/DX2                !
 ! A84   A(25,24,48)           119.9643         estimate D2E/DX2                !
 ! A85   A(24,25,26)           119.7146         estimate D2E/DX2                !
 ! A86   A(24,25,49)           120.184          estimate D2E/DX2                !
 ! A87   A(26,25,49)           120.1014         estimate D2E/DX2                !
 ! A88   A(25,26,27)           119.9966         estimate D2E/DX2                !
 ! A89   A(25,26,50)           120.0936         estimate D2E/DX2                !
 ! A90   A(27,26,50)           119.9098         estimate D2E/DX2                !
 ! A91   A(22,27,26)           121.0304         estimate D2E/DX2                !
 ! A92   A(22,27,51)           120.0955         estimate D2E/DX2                !
 ! A93   A(26,27,51)           118.8714         estimate D2E/DX2                !
 ! D1    D(30,1,2,3)           -66.0674         estimate D2E/DX2                !
 ! D2    D(30,1,2,18)           61.4253         estimate D2E/DX2                !
 ! D3    D(30,1,2,28)          179.5145         estimate D2E/DX2                !
 ! D4    D(31,1,2,3)            53.8444         estimate D2E/DX2                !
 ! D5    D(31,1,2,18)         -178.663          estimate D2E/DX2                !
 ! D6    D(31,1,2,28)          -60.5738         estimate D2E/DX2                !
 ! D7    D(32,1,2,3)           173.6157         estimate D2E/DX2                !
 ! D8    D(32,1,2,18)          -58.8916         estimate D2E/DX2                !
 ! D9    D(32,1,2,28)           59.1976         estimate D2E/DX2                !
 ! D10   D(1,2,3,4)            152.8538         estimate D2E/DX2                !
 ! D11   D(1,2,3,33)           -83.6206         estimate D2E/DX2                !
 ! D12   D(1,2,3,34)            32.1378         estimate D2E/DX2                !
 ! D13   D(18,2,3,4)            26.7699         estimate D2E/DX2                !
 ! D14   D(18,2,3,33)          150.2955         estimate D2E/DX2                !
 ! D15   D(18,2,3,34)          -93.9461         estimate D2E/DX2                !
 ! D16   D(28,2,3,4)           -90.9106         estimate D2E/DX2                !
 ! D17   D(28,2,3,33)           32.615          estimate D2E/DX2                !
 ! D18   D(28,2,3,34)          148.3734         estimate D2E/DX2                !
 ! D19   D(1,2,18,17)         -104.5786         estimate D2E/DX2                !
 ! D20   D(1,2,18,19)           84.8669         estimate D2E/DX2                !
 ! D21   D(3,2,18,17)           21.3555         estimate D2E/DX2                !
 ! D22   D(3,2,18,19)         -149.199          estimate D2E/DX2                !
 ! D23   D(28,2,18,17)         137.3338         estimate D2E/DX2                !
 ! D24   D(28,2,18,19)         -33.2207         estimate D2E/DX2                !
 ! D25   D(2,3,4,5)            174.7345         estimate D2E/DX2                !
 ! D26   D(2,3,4,12)           -57.7965         estimate D2E/DX2                !
 ! D27   D(2,3,4,29)            57.2755         estimate D2E/DX2                !
 ! D28   D(33,3,4,5)            52.0004         estimate D2E/DX2                !
 ! D29   D(33,3,4,12)          179.4694         estimate D2E/DX2                !
 ! D30   D(33,3,4,29)          -65.4586         estimate D2E/DX2                !
 ! D31   D(34,3,4,5)           -63.9761         estimate D2E/DX2                !
 ! D32   D(34,3,4,12)           63.4929         estimate D2E/DX2                !
 ! D33   D(34,3,4,29)          178.5649         estimate D2E/DX2                !
 ! D34   D(3,4,5,6)           -158.7599         estimate D2E/DX2                !
 ! D35   D(3,4,5,35)            20.0141         estimate D2E/DX2                !
 ! D36   D(12,4,5,6)            79.0674         estimate D2E/DX2                !
 ! D37   D(12,4,5,35)         -102.1586         estimate D2E/DX2                !
 ! D38   D(29,4,5,6)           -41.9351         estimate D2E/DX2                !
 ! D39   D(29,4,5,35)          136.8389         estimate D2E/DX2                !
 ! D40   D(3,4,12,13)         -132.9386         estimate D2E/DX2                !
 ! D41   D(3,4,12,17)           44.5125         estimate D2E/DX2                !
 ! D42   D(5,4,12,13)           -8.819          estimate D2E/DX2                !
 ! D43   D(5,4,12,17)          168.6322         estimate D2E/DX2                !
 ! D44   D(29,4,12,13)         112.4039         estimate D2E/DX2                !
 ! D45   D(29,4,12,17)         -70.1449         estimate D2E/DX2                !
 ! D46   D(4,5,6,7)             -1.5585         estimate D2E/DX2                !
 ! D47   D(4,5,6,11)           178.6276         estimate D2E/DX2                !
 ! D48   D(35,5,6,7)           179.6872         estimate D2E/DX2                !
 ! D49   D(35,5,6,11)           -0.1268         estimate D2E/DX2                !
 ! D50   D(5,6,7,8)           -179.8183         estimate D2E/DX2                !
 ! D51   D(5,6,7,36)            -0.5426         estimate D2E/DX2                !
 ! D52   D(11,6,7,8)            -0.0061         estimate D2E/DX2                !
 ! D53   D(11,6,7,36)          179.2696         estimate D2E/DX2                !
 ! D54   D(5,6,11,10)          179.907          estimate D2E/DX2                !
 ! D55   D(5,6,11,40)           -0.1508         estimate D2E/DX2                !
 ! D56   D(7,6,11,10)            0.0852         estimate D2E/DX2                !
 ! D57   D(7,6,11,40)         -179.9725         estimate D2E/DX2                !
 ! D58   D(6,7,8,9)             -0.0517         estimate D2E/DX2                !
 ! D59   D(6,7,8,37)           179.7548         estimate D2E/DX2                !
 ! D60   D(36,7,8,9)          -179.3522         estimate D2E/DX2                !
 ! D61   D(36,7,8,37)            0.4543         estimate D2E/DX2                !
 ! D62   D(7,8,9,10)             0.0307         estimate D2E/DX2                !
 ! D63   D(7,8,9,38)           179.9843         estimate D2E/DX2                !
 ! D64   D(37,8,9,10)         -179.7756         estimate D2E/DX2                !
 ! D65   D(37,8,9,38)            0.178          estimate D2E/DX2                !
 ! D66   D(8,9,10,11)            0.048          estimate D2E/DX2                !
 ! D67   D(8,9,10,39)          179.9117         estimate D2E/DX2                !
 ! D68   D(38,9,10,11)        -179.9055         estimate D2E/DX2                !
 ! D69   D(38,9,10,39)          -0.0418         estimate D2E/DX2                !
 ! D70   D(9,10,11,6)           -0.1069         estimate D2E/DX2                !
 ! D71   D(9,10,11,40)         179.95           estimate D2E/DX2                !
 ! D72   D(39,10,11,6)        -179.9708         estimate D2E/DX2                !
 ! D73   D(39,10,11,40)          0.0861         estimate D2E/DX2                !
 ! D74   D(4,12,13,14)         176.8494         estimate D2E/DX2                !
 ! D75   D(4,12,13,41)          -2.9504         estimate D2E/DX2                !
 ! D76   D(17,12,13,14)         -0.5477         estimate D2E/DX2                !
 ! D77   D(17,12,13,41)        179.6525         estimate D2E/DX2                !
 ! D78   D(4,12,17,16)        -175.0146         estimate D2E/DX2                !
 ! D79   D(4,12,17,18)           1.9621         estimate D2E/DX2                !
 ! D80   D(13,12,17,16)          2.5145         estimate D2E/DX2                !
 ! D81   D(13,12,17,18)        179.4912         estimate D2E/DX2                !
 ! D82   D(12,13,14,15)         -1.095          estimate D2E/DX2                !
 ! D83   D(12,13,14,22)        179.6542         estimate D2E/DX2                !
 ! D84   D(41,13,14,15)        178.7065         estimate D2E/DX2                !
 ! D85   D(41,13,14,22)         -0.5443         estimate D2E/DX2                !
 ! D86   D(13,14,15,16)          0.7567         estimate D2E/DX2                !
 ! D87   D(13,14,15,42)       -178.1635         estimate D2E/DX2                !
 ! D88   D(22,14,15,16)       -179.9925         estimate D2E/DX2                !
 ! D89   D(22,14,15,42)          1.0872         estimate D2E/DX2                !
 ! D90   D(13,14,22,23)       -141.9001         estimate D2E/DX2                !
 ! D91   D(13,14,22,27)         38.0096         estimate D2E/DX2                !
 ! D92   D(15,14,22,23)         38.8696         estimate D2E/DX2                !
 ! D93   D(15,14,22,27)       -141.2207         estimate D2E/DX2                !
 ! D94   D(14,15,16,17)          1.2286         estimate D2E/DX2                !
 ! D95   D(14,15,16,43)       -178.0708         estimate D2E/DX2                !
 ! D96   D(42,15,16,17)       -179.8383         estimate D2E/DX2                !
 ! D97   D(42,15,16,43)          0.8622         estimate D2E/DX2                !
 ! D98   D(15,16,17,12)         -2.8639         estimate D2E/DX2                !
 ! D99   D(15,16,17,18)       -179.7414         estimate D2E/DX2                !
 ! D100  D(43,16,17,12)        176.42           estimate D2E/DX2                !
 ! D101  D(43,16,17,18)         -0.4575         estimate D2E/DX2                !
 ! D102  D(12,17,18,2)         -37.5694         estimate D2E/DX2                !
 ! D103  D(12,17,18,19)        132.5214         estimate D2E/DX2                !
 ! D104  D(16,17,18,2)         139.314          estimate D2E/DX2                !
 ! D105  D(16,17,18,19)        -50.5951         estimate D2E/DX2                !
 ! D106  D(2,18,19,20)         163.4421         estimate D2E/DX2                !
 ! D107  D(2,18,19,21)         -14.3466         estimate D2E/DX2                !
 ! D108  D(17,18,19,20)         -6.5848         estimate D2E/DX2                !
 ! D109  D(17,18,19,21)        175.6265         estimate D2E/DX2                !
 ! D110  D(18,19,20,44)         85.9335         estimate D2E/DX2                !
 ! D111  D(18,19,20,45)        -36.2102         estimate D2E/DX2                !
 ! D112  D(18,19,20,46)       -155.1752         estimate D2E/DX2                !
 ! D113  D(21,19,20,44)        -96.147          estimate D2E/DX2                !
 ! D114  D(21,19,20,45)        141.7093         estimate D2E/DX2                !
 ! D115  D(21,19,20,46)         22.7443         estimate D2E/DX2                !
 ! D116  D(14,22,23,24)        179.9319         estimate D2E/DX2                !
 ! D117  D(14,22,23,47)          0.4601         estimate D2E/DX2                !
 ! D118  D(27,22,23,24)          0.0196         estimate D2E/DX2                !
 ! D119  D(27,22,23,47)       -179.4522         estimate D2E/DX2                !
 ! D120  D(14,22,27,26)       -179.965          estimate D2E/DX2                !
 ! D121  D(14,22,27,51)          0.6422         estimate D2E/DX2                !
 ! D122  D(23,22,27,26)         -0.0528         estimate D2E/DX2                !
 ! D123  D(23,22,27,51)       -179.4457         estimate D2E/DX2                !
 ! D124  D(22,23,24,25)          0.0197         estimate D2E/DX2                !
 ! D125  D(22,23,24,48)       -179.8932         estimate D2E/DX2                !
 ! D126  D(47,23,24,25)        179.497          estimate D2E/DX2                !
 ! D127  D(47,23,24,48)         -0.416          estimate D2E/DX2                !
 ! D128  D(23,24,25,26)         -0.0266         estimate D2E/DX2                !
 ! D129  D(23,24,25,49)       -179.9937         estimate D2E/DX2                !
 ! D130  D(48,24,25,26)        179.8864         estimate D2E/DX2                !
 ! D131  D(48,24,25,49)         -0.0807         estimate D2E/DX2                !
 ! D132  D(24,25,26,27)         -0.0061         estimate D2E/DX2                !
 ! D133  D(24,25,26,50)        179.918          estimate D2E/DX2                !
 ! D134  D(49,25,26,27)        179.961          estimate D2E/DX2                !
 ! D135  D(49,25,26,50)         -0.1149         estimate D2E/DX2                !
 ! D136  D(25,26,27,22)          0.0467         estimate D2E/DX2                !
 ! D137  D(25,26,27,51)        179.4468         estimate D2E/DX2                !
 ! D138  D(50,26,27,22)       -179.8776         estimate D2E/DX2                !
 ! D139  D(50,26,27,51)         -0.4775         estimate D2E/DX2                !
 --------------------------------------------------------------------------------
 Trust Radius=3.00D-01 FncErr=1.00D-07 GrdErr=1.00D-07
 Number of steps in this run= 296 maximum allowed number of steps= 306.
 GradGradGradGradGradGradGradGradGradGradGradGradGradGradGradGradGradGrad

 Stoichiometry    C24H24N2O
 Framework group  C1[X(C24H24N2O)]
 Deg. of freedom   147
 Full point group                 C1
 Largest Abelian subgroup         C1      NOp   1
 Largest concise Abelian subgroup C1      NOp   1
                         Standard orientation:                         
 ---------------------------------------------------------------------
 Center     Atomic     Atomic              Coordinates (Angstroms)
 Number     Number      Type              X           Y           Z
 ---------------------------------------------------------------------
    1          6             0        4.406641   -0.314439   -2.054594
    2          6             0        3.607653    0.319194   -0.899536
    3          6             0        2.488199    1.245376   -1.444709
    4          6             0        1.300364    1.365655   -0.481262
    5          7             0        0.330811    2.340905   -0.977160
    6          6             0       -0.605534    2.974876   -0.145892
    7          6             0       -0.716293    2.703840    1.238733
    8          6             0       -1.679771    3.370658    2.020475
    9          6             0       -2.540961    4.314445    1.429843
   10          6             0       -2.436418    4.589427    0.053866
   11          6             0       -1.474123    3.921573   -0.728602
   12          6             0        0.774907   -0.047687   -0.245293
   13          6             0       -0.600113   -0.371858   -0.310812
   14          6             0       -1.051607   -1.700257   -0.152836
   15          6             0       -0.088476   -2.711764    0.050875
   16          6             0        1.282638   -2.405742    0.111463
   17          6             0        1.725369   -1.067111   -0.005445
   18          7             0        3.117132   -0.718683    0.046353
   19          6             0        3.954907   -1.143594    1.038662
   20          6             0        3.407386   -1.906931    2.248104
   21          8             0        5.169144   -0.905953    1.036545
   22          6             0       -2.491893   -2.024939   -0.215889
   23          6             0       -3.054650   -2.999433    0.641521
   24          6             0       -4.426646   -3.310430    0.585345
   25          6             0       -5.261749   -2.649596   -0.333243
   26          6             0       -4.720261   -1.677636   -1.193685
   27          6             0       -3.346044   -1.369539   -1.132855
   28          1             0        4.279787    0.982047   -0.350977
   29          1             0        1.695122    1.734120    0.467701
   30          1             0        3.786399   -0.997435   -2.637028
   31          1             0        4.785410    0.449536   -2.734254
   32          1             0        5.265466   -0.878557   -1.690845
   33          1             0        2.908234    2.228264   -1.664544
   34          1             0        2.123359    0.853590   -2.395405
   35          1             0        0.358790    2.574187   -1.964415
   36          1             0       -0.080591    1.978714    1.725113
   37          1             0       -1.759303    3.153897    3.076573
   38          1             0       -3.280488    4.825573    2.031138
   39          1             0       -3.096267    5.312275   -0.405006
   40          1             0       -1.411055    4.146957   -1.783933
   41          1             0       -1.325493    0.406447   -0.488138
   42          1             0       -0.397842   -3.743384    0.145853
   43          1             0        1.988932   -3.214052    0.237306
   44          1             0        3.339118   -2.973139    2.036090
   45          1             0        2.427195   -1.537687    2.549909
   46          1             0        4.073505   -1.784164    3.102295
   47          1             0       -2.430840   -3.512311    1.359914
   48          1             0       -4.839200   -4.057350    1.250284
   49          1             0       -6.316529   -2.886981   -0.378057
   50          1             0       -5.356210   -1.166948   -1.902921
   51          1             0       -2.947407   -0.626064   -1.808769
 ---------------------------------------------------------------------
 Rotational constants (GHZ):      0.2083276      0.1434928      0.0988658
 Standard basis: 6-31G(d) (6D, 7F)
 There are   453 symmetry adapted basis functions of A   symmetry.
 Integral buffers will be    131072 words long.
 Raffenetti 1 integral format.
 Two-electron integral symmetry is turned on.
   453 basis functions,   852 primitive gaussians,   453 cartesian basis functions
    95 alpha electrons       95 beta electrons
       nuclear repulsion energy      2335.6915631241 Hartrees.
 NAtoms=   51 NActive=   51 NUniq=   51 SFac= 7.50D-01 NAtFMM=   80 NAOKFM=F Big=F
 One-electron integrals computed using PRISM.
 NBasis=   453 RedAO= T  NBF=   453
 NBsUse=   453 1.00D-06 NBFU=   453
 Harris functional with IExCor=  205 diagonalized for initial guess.
 ExpMin= 1.61D-01 ExpMax= 5.48D+03 ExpMxC= 8.25D+02 IAcc=1 IRadAn=         1 AccDes= 1.00D-06
 HarFok:  IExCor= 205 AccDes= 1.00D-06 IRadAn=         1 IDoV=1
 ScaDFX=  1.000000  1.000000  1.000000  1.000000
 Initial guess orbital symmetries:
       Occupied  (A) (A) (A) (A) (A) (A) (A) (A) (A) (A) (A) (A)
                 (A) (A) (A) (A) (A) (A) (A) (A) (A) (A) (A) (A)
                 (A) (A) (A) (A) (A) (A) (A) (A) (A) (A) (A) (A)
                 (A) (A) (A) (A) (A) (A) (A) (A) (A) (A) (A) (A)
                 (A) (A) (A) (A) (A) (A) (A) (A) (A) (A) (A) (A)
                 (A) (A) (A) (A) (A) (A) (A) (A) (A) (A) (A) (A)
                 (A) (A) (A) (A) (A) (A) (A) (A) (A) (A) (A) (A)
                 (A) (A) (A) (A) (A) (A) (A) (A) (A) (A) (A)
       Virtual   (A) (A) (A) (A) (A) (A) (A) (A) (A) (A) (A) (A)
                 (A) (A) (A) (A) (A) (A) (A) (A) (A) (A) (A) (A)
                 (A) (A) (A) (A) (A) (A) (A) (A) (A) (A) (A) (A)
                 (A) (A) (A) (A) (A) (A) (A) (A) (A) (A) (A) (A)
                 (A) (A) (A) (A) (A) (A) (A) (A) (A) (A) (A) (A)
                 (A) (A) (A) (A) (A) (A) (A) (A) (A) (A) (A) (A)
                 (A) (A) (A) (A) (A) (A) (A) (A) (A) (A) (A) (A)
                 (A) (A) (A) (A) (A) (A) (A) (A) (A) (A) (A) (A)
                 (A) (A) (A) (A) (A) (A) (A) (A) (A) (A) (A) (A)
                 (A) (A) (A) (A) (A) (A) (A) (A) (A) (A) (A) (A)
                 (A) (A) (A) (A) (A) (A) (A) (A) (A) (A) (A) (A)
                 (A) (A) (A) (A) (A) (A) (A) (A) (A) (A) (A) (A)
                 (A) (A) (A) (A) (A) (A) (A) (A) (A) (A) (A) (A)
                 (A) (A) (A) (A) (A) (A) (A) (A) (A) (A) (A) (A)
                 (A) (A) (A) (A) (A) (A) (A) (A) (A) (A) (A) (A)
                 (A) (A) (A) (A) (A) (A) (A) (A) (A) (A) (A) (A)
                 (A) (A) (A) (A) (A) (A) (A) (A) (A) (A) (A) (A)
                 (A) (A) (A) (A) (A) (A) (A) (A) (A) (A) (A) (A)
                 (A) (A) (A) (A) (A) (A) (A) (A) (A) (A) (A) (A)
                 (A) (A) (A) (A) (A) (A) (A) (A) (A) (A) (A) (A)
                 (A) (A) (A) (A) (A) (A) (A) (A) (A) (A) (A) (A)
                 (A) (A) (A) (A) (A) (A) (A) (A) (A) (A) (A) (A)
                 (A) (A) (A) (A) (A) (A) (A) (A) (A) (A) (A) (A)
                 (A) (A) (A) (A) (A) (A) (A) (A) (A) (A) (A) (A)
                 (A) (A) (A) (A) (A) (A) (A) (A) (A) (A) (A) (A)
                 (A) (A) (A) (A) (A) (A) (A) (A) (A) (A) (A) (A)
                 (A) (A) (A) (A) (A) (A) (A) (A) (A) (A) (A) (A)
                 (A) (A) (A) (A) (A) (A) (A) (A) (A) (A) (A) (A)
                 (A) (A) (A) (A) (A) (A) (A) (A) (A) (A) (A) (A)
                 (A) (A) (A) (A) (A) (A) (A) (A) (A) (A)
 The electronic state of the initial guess is 1-A.
 Requested convergence on RMS density matrix=1.00D-08 within 128 cycles.
 Requested convergence on MAX density matrix=1.00D-06.
 Requested convergence on             energy=1.00D-06.
 No special actions if energy rises.
 Integral accuracy reduced to 1.0D-05 until final iterations.
 Initial convergence to 1.0D-05 achieved.  Increase integral accuracy.
 SCF Done:  E(RHF) =  -1106.58647882     A.U. after   16 cycles
             Convg  =    0.6009D-08             -V/T =  2.0026
             S**2   =   0.0000

 **********************************************************************

            Population analysis using the SCF density.

 **********************************************************************

 Orbital symmetries:
 BldTbl:  Degeneracy threshold= 1.00D-02
       Occupied  (A) (A) (A) (A) (A) (A) (A) (A) (A) (A) (A) (A)
                 (A) (A) (A) (A) (A) (A) (A) (A) (A) (A) (A) (A)
                 (A) (A) (A) (A) (A) (A) (A) (A) (A) (A) (A) (A)
                 (A) (A) (A) (A) (A) (A) (A) (A) (A) (A) (A) (A)
                 (A) (A) (A) (A) (A) (A) (A) (A) (A) (A) (A) (A)
                 (A) (A) (A) (A) (A) (A) (A) (A) (A) (A) (A) (A)
                 (A) (A) (A) (A) (A) (A) (A) (A) (A) (A) (A) (A)
                 (A) (A) (A) (A) (A) (A) (A) (A) (A) (A) (A)
       Virtual   (A) (A) (A) (A) (A) (A) (A) (A) (A) (A) (A) (A)
                 (A) (A) (A) (A) (A) (A) (A) (A) (A) (A) (A) (A)
                 (A) (A) (A) (A) (A) (A) (A) (A) (A) (A) (A) (A)
                 (A) (A) (A) (A) (A) (A) (A) (A) (A) (A) (A) (A)
                 (A) (A) (A) (A) (A) (A) (A) (A) (A) (A) (A) (A)
                 (A) (A) (A) (A) (A) (A) (A) (A) (A) (A) (A) (A)
                 (A) (A) (A) (A) (A) (A) (A) (A) (A) (A) (A) (A)
                 (A) (A) (A) (A) (A) (A) (A) (A) (A) (A) (A) (A)
                 (A) (A) (A) (A) (A) (A) (A) (A) (A) (A) (A) (A)
                 (A) (A) (A) (A) (A) (A) (A) (A) (A) (A) (A) (A)
                 (A) (A) (A) (A) (A) (A) (A) (A) (A) (A) (A) (A)
                 (A) (A) (A) (A) (A) (A) (A) (A) (A) (A) (A) (A)
                 (A) (A) (A) (A) (A) (A) (A) (A) (A) (A) (A) (A)
                 (A) (A) (A) (A) (A) (A) (A) (A) (A) (A) (A) (A)
                 (A) (A) (A) (A) (A) (A) (A) (A) (A) (A) (A) (A)
                 (A) (A) (A) (A) (A) (A) (A) (A) (A) (A) (A) (A)
                 (A) (A) (A) (A) (A) (A) (A) (A) (A) (A) (A) (A)
                 (A) (A) (A) (A) (A) (A) (A) (A) (A) (A) (A) (A)
                 (A) (A) (A) (A) (A) (A) (A) (A) (A) (A) (A) (A)
                 (A) (A) (A) (A) (A) (A) (A) (A) (A) (A) (A) (A)
                 (A) (A) (A) (A) (A) (A) (A) (A) (A) (A) (A) (A)
                 (A) (A) (A) (A) (A) (A) (A) (A) (A) (A) (A) (A)
                 (A) (A) (A) (A) (A) (A) (A) (A) (A) (A) (A) (A)
                 (A) (A) (A) (A) (A) (A) (A) (A) (A) (A) (A) (A)
                 (A) (A) (A) (A) (A) (A) (A) (A) (A) (A) (A) (A)
                 (A) (A) (A) (A) (A) (A) (A) (A) (A) (A) (A) (A)
                 (A) (A) (A) (A) (A) (A) (A) (A) (A) (A) (A) (A)
                 (A) (A) (A) (A) (A) (A) (A) (A) (A) (A) (A) (A)
                 (A) (A) (A) (A) (A) (A) (A) (A) (A) (A) (A) (A)
                 (A) (A) (A) (A) (A) (A) (A) (A) (A) (A)
 The electronic state is 1-A.
 Alpha  occ. eigenvalues --  -20.52002 -15.60562 -15.57709 -11.35469 -11.29167
 Alpha  occ. eigenvalues --  -11.28785 -11.28593 -11.28083 -11.25297 -11.25231
 Alpha  occ. eigenvalues --  -11.25083 -11.24950 -11.24577 -11.24304 -11.24296
 Alpha  occ. eigenvalues --  -11.24118 -11.24088 -11.23987 -11.23963 -11.23955
 Alpha  occ. eigenvalues --  -11.23937 -11.23868 -11.23166 -11.22796 -11.22776
 Alpha  occ. eigenvalues --  -11.22180 -11.21514  -1.36900  -1.26440  -1.24027
 Alpha  occ. eigenvalues --   -1.16146  -1.13408  -1.12535  -1.08186  -1.05649
 Alpha  occ. eigenvalues --   -1.02654  -1.00973  -1.00511  -1.00156  -0.98880
 Alpha  occ. eigenvalues --   -0.97731  -0.95206  -0.88553  -0.86144  -0.84971
 Alpha  occ. eigenvalues --   -0.83138  -0.82087  -0.80778  -0.80348  -0.78106
 Alpha  occ. eigenvalues --   -0.75116  -0.71418  -0.70682  -0.68164  -0.67708
 Alpha  occ. eigenvalues --   -0.67198  -0.66545  -0.65869  -0.63510  -0.62603
 Alpha  occ. eigenvalues --   -0.61676  -0.61512  -0.61076  -0.60687  -0.59393
 Alpha  occ. eigenvalues --   -0.58702  -0.58372  -0.58255  -0.57927  -0.57297
 Alpha  occ. eigenvalues --   -0.56389  -0.55857  -0.55178  -0.53608  -0.53223
 Alpha  occ. eigenvalues --   -0.51790  -0.51458  -0.50578  -0.50447  -0.50118
 Alpha  occ. eigenvalues --   -0.49234  -0.48883  -0.48365  -0.48026  -0.47788
 Alpha  occ. eigenvalues --   -0.46993  -0.42193  -0.41539  -0.40426  -0.34939
 Alpha  occ. eigenvalues --   -0.33754  -0.33154  -0.32734  -0.28918  -0.28227
 Alpha virt. eigenvalues --    0.09706   0.12706   0.13713   0.14056   0.16196
 Alpha virt. eigenvalues --    0.16778   0.20189   0.22412   0.23143   0.23769
 Alpha virt. eigenvalues --    0.24054   0.24223   0.26203   0.27347   0.28122
 Alpha virt. eigenvalues --    0.28640   0.29337   0.30047   0.30149   0.30807
 Alpha virt. eigenvalues --    0.30841   0.31557   0.31823   0.32047   0.32320
 Alpha virt. eigenvalues --    0.33177   0.33707   0.33799   0.34698   0.35485
 Alpha virt. eigenvalues --    0.36159   0.36281   0.37066   0.37282   0.37912
 Alpha virt. eigenvalues --    0.39116   0.39535   0.41345   0.42802   0.43731
 Alpha virt. eigenvalues --    0.44109   0.44757   0.45702   0.46157   0.46792
 Alpha virt. eigenvalues --    0.48435   0.48849   0.49225   0.50423   0.51147
 Alpha virt. eigenvalues --    0.52621   0.53443   0.54564   0.55417   0.56644
 Alpha virt. eigenvalues --    0.57289   0.59769   0.61996   0.65663   0.67241
 Alpha virt. eigenvalues --    0.70091   0.70327   0.71687   0.72561   0.72921
 Alpha virt. eigenvalues --    0.73338   0.73542   0.74265   0.75247   0.75697
 Alpha virt. eigenvalues --    0.75813   0.76306   0.76704   0.76903   0.77445
 Alpha virt. eigenvalues --    0.78331   0.79062   0.79400   0.79834   0.80249
 Alpha virt. eigenvalues --    0.81639   0.81663   0.82179   0.82321   0.83221
 Alpha virt. eigenvalues --    0.83407   0.83592   0.83789   0.84016   0.84190
 Alpha virt. eigenvalues --    0.84531   0.84743   0.86041   0.86574   0.86852
 Alpha virt. eigenvalues --    0.87728   0.88625   0.89247   0.90119   0.91067
 Alpha virt. eigenvalues --    0.91479   0.91940   0.92595   0.93938   0.94899
 Alpha virt. eigenvalues --    0.95137   0.96767   0.97375   0.99077   0.99819
 Alpha virt. eigenvalues --    1.01560   1.03008   1.03636   1.04929   1.05845
 Alpha virt. eigenvalues --    1.06989   1.07869   1.08762   1.09946   1.10774
 Alpha virt. eigenvalues --    1.11044   1.11205   1.11295   1.11600   1.11838
 Alpha virt. eigenvalues --    1.12032   1.12308   1.12507   1.13390   1.13896
 Alpha virt. eigenvalues --    1.14952   1.15932   1.16102   1.16676   1.16810
 Alpha virt. eigenvalues --    1.17347   1.17977   1.18704   1.18867   1.19354
 Alpha virt. eigenvalues --    1.19680   1.19967   1.20423   1.20513   1.20619
 Alpha virt. eigenvalues --    1.21504   1.21875   1.22641   1.23161   1.24007
 Alpha virt. eigenvalues --    1.24710   1.25547   1.26493   1.27696   1.27962
 Alpha virt. eigenvalues --    1.28976   1.29384   1.31323   1.31925   1.32409
 Alpha virt. eigenvalues --    1.34308   1.34790   1.36171   1.37971   1.38409
 Alpha virt. eigenvalues --    1.39561   1.41113   1.41289   1.42025   1.43113
 Alpha virt. eigenvalues --    1.44006   1.44960   1.46771   1.47155   1.48964
 Alpha virt. eigenvalues --    1.50064   1.50941   1.51507   1.54678   1.57265
 Alpha virt. eigenvalues --    1.57659   1.60656   1.61634   1.63796   1.64586
 Alpha virt. eigenvalues --    1.67195   1.68148   1.69807   1.70234   1.70766
 Alpha virt. eigenvalues --    1.71576   1.71979   1.72714   1.73350   1.74423
 Alpha virt. eigenvalues --    1.76221   1.76744   1.76828   1.77205   1.77778
 Alpha virt. eigenvalues --    1.78476   1.79107   1.79485   1.80038   1.81323
 Alpha virt. eigenvalues --    1.85901   1.87616   1.90996   1.94350   1.96615
 Alpha virt. eigenvalues --    1.98929   2.00728   2.01434   2.04081   2.04985
 Alpha virt. eigenvalues --    2.05729   2.07357   2.08039   2.08569   2.09685
 Alpha virt. eigenvalues --    2.10713   2.11253   2.11660   2.12437   2.12637
 Alpha virt. eigenvalues --    2.13359   2.14404   2.15616   2.15878   2.16614
 Alpha virt. eigenvalues --    2.17028   2.18593   2.21011   2.23101   2.24162
 Alpha virt. eigenvalues --    2.24277   2.24431   2.25603   2.25989   2.27708
 Alpha virt. eigenvalues --    2.29229   2.30485   2.30763   2.31198   2.32098
 Alpha virt. eigenvalues --    2.33295   2.35986   2.36551   2.36610   2.37976
 Alpha virt. eigenvalues --    2.38737   2.39928   2.40869   2.42328   2.42720
 Alpha virt. eigenvalues --    2.44099   2.44788   2.45543   2.45966   2.46133
 Alpha virt. eigenvalues --    2.47266   2.48264   2.50016   2.50886   2.51790
 Alpha virt. eigenvalues --    2.53293   2.54271   2.55665   2.56020   2.56635
 Alpha virt. eigenvalues --    2.58831   2.59583   2.60573   2.61445   2.61823
 Alpha virt. eigenvalues --    2.62179   2.62644   2.63150   2.66295   2.66879
 Alpha virt. eigenvalues --    2.67473   2.69623   2.71396   2.74195   2.76042
 Alpha virt. eigenvalues --    2.78236   2.80611   2.82199   2.83557   2.84913
 Alpha virt. eigenvalues --    2.86327   2.88423   2.90598   2.91030   2.91874
 Alpha virt. eigenvalues --    2.92926   2.94031   2.95202   2.96046   2.97796
 Alpha virt. eigenvalues --    2.98030   2.99988   3.01478   3.03164   3.04112
 Alpha virt. eigenvalues --    3.05810   3.07056   3.07826   3.08402   3.08822
 Alpha virt. eigenvalues --    3.09345   3.09450   3.12035   3.13941   3.14529
 Alpha virt. eigenvalues --    3.16555   3.17943   3.23128   3.25848   3.27272
 Alpha virt. eigenvalues --    3.30736   3.31559   3.33559   3.38687   3.47157
 Alpha virt. eigenvalues --    3.54283   3.56022   3.62114   3.72276   3.77001
 Alpha virt. eigenvalues --    3.81907   4.44233   4.48128   4.50391   4.51157
 Alpha virt. eigenvalues --    4.52657   4.53770   4.54313   4.54591   4.56370
 Alpha virt. eigenvalues --    4.58144   4.60133   4.61737   4.65434   4.72394
 Alpha virt. eigenvalues --    4.73382   4.75510   4.75980   4.76463   4.80720
 Alpha virt. eigenvalues --    4.81572   4.88281   4.92523   4.96428   5.08993
 Alpha virt. eigenvalues --    5.10803   5.15372   5.22601
          Condensed to atoms (all electrons):
 Mulliken atomic charges:
              1
     1  C   -0.483619
     2  C    0.072740
     3  C   -0.372386
     4  C    0.103655
     5  N   -0.891174
     6  C    0.396140
     7  C   -0.279498
     8  C   -0.174123
     9  C   -0.237733
    10  C   -0.175720
    11  C   -0.279156
    12  C   -0.034599
    13  C   -0.235271
    14  C    0.011097
    15  C   -0.221216
    16  C   -0.210385
    17  C    0.298980
    18  N   -0.790997
    19  C    0.751682
    20  C   -0.577539
    21  O   -0.626989
    22  C    0.016175
    23  C   -0.218482
    24  C   -0.199118
    25  C   -0.203698
    26  C   -0.198789
    27  C   -0.215507
    28  H    0.210409
    29  H    0.193139
    30  H    0.159839
    31  H    0.156992
    32  H    0.206681
    33  H    0.192466
    34  H    0.172896
    35  H    0.382378
    36  H    0.207906
    37  H    0.205124
    38  H    0.193218
    39  H    0.202284
    40  H    0.190345
    41  H    0.245733
    42  H    0.215182
    43  H    0.217350
    44  H    0.190670
    45  H    0.189452
    46  H    0.216405
    47  H    0.206417
    48  H    0.204145
    49  H    0.202629
    50  H    0.204845
    51  H    0.209022
 Sum of Mulliken charges=   0.00000
 Atomic charges with hydrogens summed into heavy atoms:
              1
     1  C    0.039893
     2  C    0.283149
     3  C   -0.007023
     4  C    0.296794
     5  N   -0.508796
     6  C    0.396140
     7  C   -0.071592
     8  C    0.031001
     9  C   -0.044515
    10  C    0.026564
    11  C   -0.088810
    12  C   -0.034599
    13  C    0.010462
    14  C    0.011097
    15  C   -0.006034
    16  C    0.006965
    17  C    0.298980
    18  N   -0.790997
    19  C    0.751682
    20  C    0.018989
    21  O   -0.626989
    22  C    0.016175
    23  C   -0.012065
    24  C    0.005027
    25  C   -0.001069
    26  C    0.006056
    27  C   -0.006485
    28  H    0.000000
    29  H    0.000000
    30  H    0.000000
    31  H    0.000000
    32  H    0.000000
    33  H    0.000000
    34  H    0.000000
    35  H    0.000000
    36  H    0.000000
    37  H    0.000000
    38  H    0.000000
    39  H    0.000000
    40  H    0.000000
    41  H    0.000000
    42  H    0.000000
    43  H    0.000000
    44  H    0.000000
    45  H    0.000000
    46  H    0.000000
    47  H    0.000000
    48  H    0.000000
    49  H    0.000000
    50  H    0.000000
    51  H    0.000000
 Sum of Mulliken charges=   0.00000
 Entering OneElI...
 OneElI was handed  5974511 working-precision words.
 Multipole integrals L=0 to 4 MinM= 0 MaxM= 0.
 Requested accuracy = 0.1000D-12
 PrsmSu:  NPrtUS=   1 ThrOK=F
 PRISM was handed     5250297 working-precision words and  8481 shell-pairs
 Electronic moments (au):
  -190.00000000    -1.28386296    -0.07301458    -0.56236330
 -6154.98814523 -4014.69059255 -1002.77231522     2.05780876
    -3.99335213    -8.01915189  -525.65332178 -8907.68535481
  -496.20046336 12134.14197376 11081.54812155   692.31916710
 -1726.09361115  -717.42876485 -2681.12860650  3055.73635066
******************************-15599.60257015-48863.52444035
-14341.26413259 26545.64877006 -7661.77351024  1740.22769093
 -1360.70956917***************-39358.29115880-20278.63126637
  2590.78184940  7801.79478731  7280.00968612
 Electronic spatial extent (au):  <R**2>= 11172.4511
 Nuclear    moments (au):
   190.00000000     0.00000000     0.00000000     0.00000000
  6021.93226688  3901.20841873   890.35239601     0.00000000
     0.00000000     0.00000000   227.09666236  8849.85137352
   508.01916066-12145.64033097-11059.04474322  -761.52499898
  1739.54266962   748.10335040  2692.89265785 -3049.95941291
380851.13112588166335.12387792 12159.00712258 49672.57792765
 13885.21003902-27000.61263057  7111.73996078 -1678.83131430
  1242.77208121102589.18321162 35128.98827805 17313.19433670
 -2698.87991873 -7967.38369120 -7408.17689443
 Total      moments (au):
     0.00000000    -1.28386296    -0.07301458    -0.56236330
  -133.05587836  -113.48217382  -112.41991921     2.05780876
    -3.99335213    -8.01915189  -298.55665942   -57.83398129
    11.81869730   -11.49835721    22.50337833   -69.20583188
    13.44905847    30.67458555    11.76405135     5.77693774
-24340.63002019-14938.81183521 -3440.59544757   809.05348731
  -456.05409356  -454.96386050  -550.03354947    61.39637663
  -117.93748796 -5674.39409381 -4229.30288075 -2965.43692967
  -108.09806934  -165.58890389  -128.16720831
 Charge=     0.0000 electrons
 Dipole moment (field-independent basis, Debye):
    X=    -3.2633    Y=    -0.1856    Z=    -1.4294  Tot=     3.5674
 Quadrupole moment (field-independent basis, Debye-Ang):
   XX=  -178.9647   YY=  -152.6374   ZZ=  -151.2086
   XY=     2.7678   XZ=    -5.3712   YZ=   -10.7860
 Traceless Quadrupole moment (field-independent basis, Debye-Ang):
   XX=   -18.0278   YY=     8.2995   ZZ=     9.7283
   XY=     2.7678   XZ=    -5.3712   YZ=   -10.7860
 Octapole moment (field-independent basis, Debye-Ang**2):
  XXX=  -212.5011  YYY=   -41.1640  ZZZ=     8.4121  XYY=    -8.1841
  XXY=    16.0170  XXZ=   -49.2580  XZZ=     9.5725  YZZ=    21.8330
  YYZ=     8.3732  XYZ=     4.1118
 Hexadecapole moment (field-independent basis, Debye-Ang**3):
 XXXX= -9167.8477 YYYY= -5626.6724 ZZZZ= -1295.8931 XXXY=   304.7283
 XXXZ=  -171.7718 YYYX=  -171.3612 YYYZ=  -207.1690 ZZZX=    23.1248
 ZZZY=   -44.4209 XXYY= -2137.2487 XXZZ= -1592.9581 YYZZ= -1116.9257
 XXYZ=   -40.7149 YYXZ=   -62.3687 ZZXY=   -48.2739
 N-N= 2.335691563124D+03 E-N=-7.250588366708D+03  KE= 1.103742508659D+03
 Entering OneElI...
 OneElI was handed  5562365 working-precision words.
 Calculate electrostatic properties
    NBasis =   453  MinDer = 0  MaxDer = 0
    NGrid  =    51  NMatD  =   1
 Requested accuracy = 0.1000D-12
 PrsmSu:  NPrtUS=   1 ThrOK=F
 PRISM was handed     4907781 working-precision words and  7414 shell-pairs
 --------------------------------------------------------
       Center         ----      EFG at Nuclei      ----
                      3XX-RR        3YY-RR        3ZZ-RR
 --------------------------------------------------------
     1   Atom        0.027228      0.000862     -0.028090
     2   Atom        0.097275     -0.090557     -0.006718
     3   Atom       -0.022543      0.028657     -0.006115
     4   Atom       -0.053233     -0.056352      0.109585
     5   Atom        0.200946      0.366640     -0.567586
     6   Atom       -0.112860     -0.088601      0.201461
     7   Atom       -0.018007     -0.038616      0.056623
     8   Atom       -0.044635     -0.095005      0.139640
     9   Atom       -0.042765     -0.068468      0.111233
    10   Atom       -0.068628     -0.123944      0.192572
    11   Atom       -0.008867     -0.049350      0.058217
    12   Atom        0.167182      0.105694     -0.272876
    13   Atom        0.153571      0.164855     -0.318426
    14   Atom        0.124150      0.179616     -0.303766
    15   Atom        0.170688      0.136570     -0.307258
    16   Atom        0.175222      0.101947     -0.277169
    17   Atom       -0.093968      0.256493     -0.162526
    18   Atom       -0.443001      0.362390      0.080611
    19   Atom        0.286857     -0.308633      0.021776
    20   Atom        0.065506     -0.001919     -0.063587
    21   Atom       -0.987558     -0.260236      1.247794
    22   Atom        0.104878     -0.061866     -0.043012
    23   Atom        0.155786     -0.088853     -0.066933
    24   Atom        0.166388     -0.096850     -0.069538
    25   Atom        0.122934     -0.070242     -0.052692
    26   Atom        0.153617     -0.082004     -0.071613
    27   Atom        0.163022     -0.098184     -0.064838
    28   Atom       -0.011461     -0.017188      0.028649
    29   Atom        0.086528      0.095770     -0.182298
    30   Atom       -0.001058     -0.021937      0.022995
    31   Atom        0.102282     -0.077859     -0.024423
    32   Atom       -0.129709      0.030087      0.099622
    33   Atom        0.076563     -0.213006      0.136443
    34   Atom        0.093614      0.093884     -0.187498
    35   Atom        0.187541      0.169802     -0.357343
    36   Atom       -0.004668     -0.047249      0.051917
    37   Atom        0.155385      0.140730     -0.296114
    38   Atom       -0.059661      0.056755      0.002906
    39   Atom       -0.016058     -0.049493      0.065551
    40   Atom        0.156877      0.142606     -0.299483
    41   Atom       -0.063100     -0.093346      0.156446
    42   Atom        0.108181     -0.274778      0.166597
    43   Atom       -0.053844     -0.110684      0.164529
    44   Atom        0.158586     -0.286752      0.128165
    45   Atom       -0.214286      0.101359      0.112927
    46   Atom       -0.018778      0.144460     -0.125681
    47   Atom       -0.008291      0.055527     -0.047236
    48   Atom        0.080998     -0.062895     -0.018103
    49   Atom       -0.293033      0.136249      0.156784
    50   Atom       -0.012384      0.055340     -0.042956
    51   Atom        0.084028     -0.059936     -0.024092
 --------------------------------------------------------
                        XY            XZ            YZ
 --------------------------------------------------------
     1   Atom       -0.005399      0.045002     -0.035511
     2   Atom       -0.066906      0.115517      0.237743
     3   Atom        0.028361      0.016658      0.026678
     4   Atom        0.133059     -0.066383      0.098299
     5   Atom        0.951853      0.246010      0.264529
     6   Atom       -0.215078      0.049253     -0.190958
     7   Atom       -0.143804     -0.052402     -0.021257
     8   Atom       -0.287861     -0.066250     -0.080622
     9   Atom       -0.167944     -0.032787     -0.063751
    10   Atom       -0.257933     -0.088770     -0.072388
    11   Atom       -0.141541     -0.053490     -0.015059
    12   Atom        0.016033      0.059918     -0.098158
    13   Atom       -0.004217      0.032933     -0.068462
    14   Atom       -0.007219      0.032621     -0.069045
    15   Atom       -0.006443      0.033578     -0.050078
    16   Atom        0.016897      0.012910     -0.070793
    17   Atom       -0.079277      0.041171     -0.086665
    18   Atom       -0.312664     -0.252546      0.701627
    19   Atom        0.162545     -0.026460     -0.347297
    20   Atom       -0.000678      0.046403      0.046825
    21   Atom       -0.060377      0.115437     -1.042351
    22   Atom        0.050798      0.062903     -0.247077
    23   Atom        0.080199      0.050307     -0.215566
    24   Atom        0.054232      0.078627     -0.234666
    25   Atom        0.058045      0.064679     -0.250895
    26   Atom        0.086410      0.050770     -0.241378
    27   Atom        0.061854      0.066768     -0.216045
    28   Atom       -0.165130     -0.129404     -0.126158
    29   Atom       -0.046150     -0.138072     -0.128159
    30   Atom       -0.162925     -0.135720     -0.154408
    31   Atom       -0.108430      0.102444      0.198247
    32   Atom        0.185718     -0.115111      0.076794
    33   Atom       -0.154553      0.033663      0.080332
    34   Atom       -0.049519     -0.130973     -0.141268
    35   Atom        0.041959      0.025825      0.134284
    36   Atom        0.201445     -0.116707      0.143233
    37   Atom        0.002553      0.035534      0.094755
    38   Atom        0.164334      0.180864     -0.118361
    39   Atom        0.200241     -0.119192      0.136029
    40   Atom        0.011342      0.033718      0.097334
    41   Atom        0.222757     -0.056160      0.056501
    42   Atom       -0.125598      0.011182      0.041598
    43   Atom        0.226195     -0.040640      0.041807
    44   Atom       -0.032519     -0.004636     -0.087985
    45   Atom        0.138485      0.113842     -0.035186
    46   Atom       -0.035050     -0.216388     -0.037768
    47   Atom        0.124823     -0.180459      0.158358
    48   Atom       -0.125151      0.105905      0.208261
    49   Atom       -0.102393     -0.021617      0.006693
    50   Atom        0.126827     -0.183170      0.155808
    51   Atom       -0.122261      0.102990      0.210780
 --------------------------------------------------------


 ---------------------------------------------------------------------------------
              Nuclear Quadrupole in Principal Axis System
 ---------------------------------------------------------------------------------

       Atom             a.u.   MegaHertz   Gauss  10(-4) cm-1        Axes

              Baa    -0.0661    -8.864    -3.163    -2.957 -0.3769  0.4103  0.8304
     1 C(13)  Bbb     0.0046     0.617     0.220     0.206  0.5324  0.8296 -0.1682
              Bcc     0.0615     8.247     2.943     2.751  0.7579 -0.3788  0.5311
 
              Baa    -0.3275   -43.945   -15.681   -14.658  0.2857  0.7178 -0.6349
     2 C(13)  Bbb     0.1112    14.919     5.324     4.976  0.8426 -0.5038 -0.1904
              Bcc     0.2163    29.026    10.357     9.682  0.4565  0.4806  0.7488
 
              Baa    -0.0362    -4.863    -1.735    -1.622  0.9218 -0.3040 -0.2405
     3 C(13)  Bbb    -0.0205    -2.751    -0.982    -0.918  0.0594 -0.5024  0.8626
              Bcc     0.0567     7.615     2.717     2.540  0.3830  0.8095  0.4450
 
              Baa    -0.2283   -30.632   -10.930   -10.218 -0.6474  0.6883 -0.3274
     4 C(13)  Bbb     0.0729     9.780     3.490     3.262  0.7614  0.6030 -0.2379
              Bcc     0.1554    20.852     7.440     6.955 -0.0337  0.4033  0.9144
 
              Baa    -0.6718   -25.912    -9.246    -8.643  0.7443 -0.6640 -0.0716
     5 N(14)  Bbb    -0.6369   -24.566    -8.766    -8.194 -0.0737 -0.1883  0.9794
              Bcc     1.3088    50.477    18.011    16.837  0.6638  0.7237  0.1890
 
              Baa    -0.3355   -45.017   -16.063   -15.016  0.6581  0.7265  0.1980
     6 C(13)  Bbb    -0.0093    -1.243    -0.444    -0.415  0.6786 -0.4583 -0.5739
              Bcc     0.3447    46.261    16.507    15.431  0.3262 -0.5121  0.7946
 
              Baa    -0.1835   -24.626    -8.787    -8.214  0.6783  0.7040  0.2103
     7 C(13)  Bbb     0.0581     7.802     2.784     2.603  0.1369 -0.4024  0.9052
              Bcc     0.1254    16.824     6.003     5.612  0.7219 -0.5852 -0.3693
 
              Baa    -0.3797   -50.951   -18.180   -16.995  0.6610  0.7241  0.1967
     8 C(13)  Bbb     0.1600    21.475     7.663     7.163 -0.2009 -0.0818  0.9762
              Bcc     0.2197    29.476    10.518     9.832  0.7230 -0.6848  0.0914
 
              Baa    -0.2378   -31.904   -11.384   -10.642  0.6587  0.7268  0.1946
     9 C(13)  Bbb     0.0990    13.290     4.742     4.433  0.6760 -0.4581 -0.5772
              Bcc     0.1387    18.615     6.642     6.209  0.3303 -0.5118  0.7931
 
              Baa    -0.3782   -50.746   -18.107   -16.927  0.6603  0.7254  0.1947
    10 C(13)  Bbb     0.1579    21.189     7.561     7.068 -0.6701  0.6860 -0.2834
              Bcc     0.2203    29.557    10.547     9.859 -0.3391  0.0566  0.9390
 
              Baa    -0.1812   -24.317    -8.677    -8.111  0.6578  0.7281  0.1928
    11 C(13)  Bbb     0.0526     7.056     2.518     2.354  0.2123 -0.4247  0.8801
              Bcc     0.1286    17.260     6.159     5.757  0.7227 -0.5380 -0.4339
 
              Baa    -0.3050   -40.922   -14.602   -13.650 -0.1302  0.2353  0.9632
    12 C(13)  Bbb     0.1296    17.390     6.205     5.801 -0.0296  0.9701 -0.2410
              Bcc     0.1754    23.533     8.397     7.850  0.9910  0.0599  0.1194
 
              Baa    -0.3301   -44.291   -15.804   -14.774 -0.0661  0.1362  0.9885
    13 C(13)  Bbb     0.1523    20.434     7.291     6.816  0.9285  0.3711  0.0110
              Bcc     0.1778    23.857     8.513     7.958 -0.3653  0.9186 -0.1510
 
              Baa    -0.3157   -42.359   -15.115   -14.129 -0.0710  0.1367  0.9881
    14 C(13)  Bbb     0.1243    16.679     5.951     5.563  0.9818  0.1844  0.0451
              Bcc     0.1914    25.680     9.163     8.566 -0.1760  0.9733 -0.1473
 
              Baa    -0.3150   -42.275   -15.085   -14.101 -0.0671  0.1090  0.9918
    15 C(13)  Bbb     0.1391    18.670     6.662     6.228  0.2859  0.9544 -0.0856
              Bcc     0.1759    23.605     8.423     7.874  0.9559 -0.2778  0.0952
 
              Baa    -0.2905   -38.981   -13.909   -13.003 -0.0337  0.1788  0.9833
    16 C(13)  Bbb     0.1115    14.968     5.341     4.993 -0.2176  0.9589 -0.1819
              Bcc     0.1789    24.013     8.568     8.010  0.9755  0.2201 -0.0065
 
              Baa    -0.1877   -25.192    -8.989    -8.403 -0.3046  0.1297  0.9436
    17 C(13)  Bbb    -0.1051   -14.099    -5.031    -4.703  0.9274  0.2663  0.2628
              Bcc     0.2928    39.291    14.020    13.106 -0.2172  0.9551 -0.2014
 
              Baa    -0.5516   -21.275    -7.592    -7.097  0.9644  0.2308  0.1291
    18 N(14)  Bbb    -0.4940   -19.053    -6.799    -6.355  0.0447 -0.6233  0.7807
              Bcc     1.0456    40.328    14.390    13.452 -0.2607  0.7471  0.6114
 
              Baa    -0.5466   -73.347   -26.172   -24.466 -0.1490  0.8469  0.5105
    19 C(13)  Bbb     0.1607    21.568     7.696     7.194  0.5898 -0.3383  0.7333
              Bcc     0.3859    51.779    18.476    17.272  0.7937  0.4103 -0.4491
 
              Baa    -0.0993   -13.331    -4.757    -4.447 -0.2474 -0.4211  0.8726
    20 C(13)  Bbb     0.0163     2.186     0.780     0.729 -0.3092  0.8878  0.3408
              Bcc     0.0830    11.144     3.976     3.717  0.9183  0.1855  0.3498
 
              Baa    -0.9937    71.902    25.656    23.984  0.9989  0.0269 -0.0389
    21 O(17)  Bbb    -0.7927    57.359    20.467    19.133 -0.0062  0.8904  0.4552
              Bcc     1.7864  -129.261   -46.124   -43.117  0.0469 -0.4544  0.8895
 
              Baa    -0.3150   -42.274   -15.084   -14.101 -0.1877  0.7051  0.6838
    22 C(13)  Bbb     0.1189    15.957     5.694     5.323  0.9739  0.2242  0.0362
              Bcc     0.1961    26.317     9.391     8.778  0.1279 -0.6728  0.7287
 
              Baa    -0.3122   -41.890   -14.947   -13.973 -0.1948  0.7165  0.6698
    23 C(13)  Bbb     0.1303    17.479     6.237     5.830  0.3779 -0.5753  0.7254
              Bcc     0.1819    24.411     8.711     8.143  0.9051  0.3944 -0.1587
 
              Baa    -0.3357   -45.043   -16.072   -15.025 -0.1832  0.7099  0.6801
    24 C(13)  Bbb     0.1425    19.128     6.825     6.380  0.4215  0.6817 -0.5980
              Bcc     0.1931    25.915     9.247     8.644  0.8881 -0.1771  0.4241
 
              Baa    -0.3291   -44.167   -15.760   -14.733 -0.1883  0.7049  0.6838
    25 C(13)  Bbb     0.1388    18.629     6.647     6.214  0.9750  0.2175  0.0443
              Bcc     0.1903    25.539     9.113     8.519  0.1175 -0.6751  0.7283
 
              Baa    -0.3375   -45.296   -16.163   -15.109 -0.1947  0.7075  0.6793
    26 C(13)  Bbb     0.1447    19.421     6.930     6.478  0.6302 -0.4405  0.6394
              Bcc     0.1928    25.875     9.233     8.631  0.7516  0.5526 -0.3601
 
              Baa    -0.3154   -42.326   -15.103   -14.118 -0.1864  0.7190  0.6696
    27 C(13)  Bbb     0.1342    18.003     6.424     6.005 -0.1440 -0.6941  0.7053
              Bcc     0.1813    24.323     8.679     8.113  0.9719  0.0351  0.2329
 
              Baa    -0.2839  -151.492   -54.056   -50.532  0.6100  0.6143  0.5005
    28 H(1)   Bbb     0.1325    70.687    25.223    23.579 -0.2178 -0.4773  0.8513
              Bcc     0.1514    80.805    28.833    26.954  0.7619 -0.6283 -0.1573
 
              Baa    -0.2887  -154.044   -54.967   -51.383  0.3614  0.3336  0.8707
    29 H(1)   Bbb     0.1374    73.331    26.166    24.461  0.7253 -0.6874 -0.0377
              Bcc     0.1513    80.713    28.800    26.923  0.5859  0.6451 -0.4904
 
              Baa    -0.3039  -162.163   -57.864   -54.092  0.5735  0.6228  0.5322
    30 H(1)   Bbb     0.1463    78.078    27.860    26.044  0.7804 -0.2176 -0.5862
              Bcc     0.1576    84.085    30.003    28.048 -0.2493  0.7515 -0.6108
 
              Baa    -0.3057  -163.083   -58.192   -54.399  0.3433  0.7042 -0.6215
    31 H(1)   Bbb     0.1461    77.978    27.824    26.011 -0.4255  0.7065  0.5656
              Bcc     0.1595    85.105    30.368    28.388  0.8374  0.0703  0.5421
 
              Baa    -0.2999  -160.018   -57.098   -53.376  0.7889 -0.5201  0.3273
    32 H(1)   Bbb     0.1474    78.656    28.066    26.237 -0.3570  0.0455  0.9330
              Bcc     0.1525    81.362    29.032    27.140  0.5002  0.8529  0.1498
 
              Baa    -0.2975  -158.720   -56.635   -52.943  0.3895  0.8998 -0.1968
    33 H(1)   Bbb     0.1435    76.539    27.311    25.531  0.9209 -0.3775  0.0969
              Bcc     0.1540    82.182    29.324    27.413 -0.0129  0.2190  0.9757
 
              Baa    -0.2964  -158.148   -56.431   -52.752  0.3378  0.3579  0.8705
    34 H(1)   Bbb     0.1421    75.821    27.055    25.291  0.8717 -0.4679 -0.1458
              Bcc     0.1543    82.326    29.376    27.461  0.3551  0.8080 -0.4701
 
              Baa    -0.3900  -208.079   -74.248   -69.408 -0.0267 -0.2313  0.9725
    35 H(1)   Bbb     0.1477    78.782    28.111    26.279  0.7576 -0.6394 -0.1313
              Bcc     0.2423   129.297    46.137    43.129  0.6522  0.7333  0.1923
 
              Baa    -0.3201  -170.792   -60.943   -56.970 -0.5931  0.6713 -0.4445
    36 H(1)   Bbb     0.1416    75.543    26.956    25.198 -0.4584  0.1723  0.8719
              Bcc     0.1785    95.249    33.987    31.772  0.6618  0.7209  0.2055
 
              Baa    -0.3183  -169.810   -60.592   -56.643 -0.0722 -0.2013  0.9769
    37 H(1)   Bbb     0.1494    79.688    28.435    26.581  0.7495 -0.6572 -0.0800
              Bcc     0.1689    90.122    32.158    30.062  0.6581  0.7264  0.1983
 
              Baa    -0.3202  -170.866   -60.969   -56.995  0.6839 -0.4726 -0.5559
    38 H(1)   Bbb     0.1458    77.793    27.758    25.949  0.3103 -0.5011  0.8078
              Bcc     0.1744    93.073    33.211    31.046  0.6604  0.7249  0.1961
 
              Baa    -0.3188  -170.087   -60.691   -56.735 -0.6098  0.6685 -0.4257
    39 H(1)   Bbb     0.1498    79.904    28.512    26.653 -0.4372  0.1643  0.8842
              Bcc     0.1690    90.183    32.179    30.082  0.6611  0.7253  0.1921
 
              Baa    -0.3219  -171.767   -61.291   -57.295 -0.0640 -0.2032  0.9771
    40 H(1)   Bbb     0.1428    76.210    27.194    25.421  0.7458 -0.6603 -0.0885
              Bcc     0.1791    95.557    34.097    31.874  0.6631  0.7230  0.1938
 
              Baa    -0.3149  -168.039   -59.960   -56.052 -0.6739  0.7198 -0.1666
    41 H(1)   Bbb     0.1448    77.265    27.570    25.773  0.7157  0.6919  0.0947
              Bcc     0.1701    90.773    32.390    30.279 -0.1834  0.0554  0.9815
 
              Baa    -0.3161  -168.675   -60.187   -56.264  0.2849  0.9544 -0.0888
    42 H(1)   Bbb     0.1456    77.707    27.728    25.920  0.9584 -0.2816  0.0476
              Bcc     0.1705    90.968    32.459    30.344 -0.0204  0.0987  0.9949
 
              Baa    -0.3173  -169.284   -60.405   -56.467 -0.6573  0.7440 -0.1200
    43 H(1)   Bbb     0.1454    77.584    27.684    25.879  0.7367  0.6679  0.1055
              Bcc     0.1719    91.700    32.721    30.588 -0.1586  0.0191  0.9872
 
              Baa    -0.3069  -163.773   -58.438   -54.629  0.0703  0.9776  0.1984
    44 H(1)   Bbb     0.1458    77.794    27.759    25.949 -0.1266 -0.1886  0.9739
              Bcc     0.1611    85.978    30.679    28.679  0.9895 -0.0935  0.1105
 
              Baa    -0.3006  -160.410   -57.238   -53.507  0.9009 -0.3346 -0.2765
    45 H(1)   Bbb     0.1427    76.146    27.171    25.400  0.0302 -0.5872  0.8089
              Bcc     0.1579    84.264    30.068    28.107  0.4329  0.7371  0.5189
 
              Baa    -0.3010  -160.621   -57.314   -53.577  0.6133  0.1145  0.7815
    46 H(1)   Bbb     0.1462    78.024    27.841    26.026  0.4962  0.7140 -0.4940
              Bcc     0.1548    82.597    29.473    27.551 -0.6145  0.6907  0.3811
 
              Baa    -0.3178  -169.577   -60.509   -56.565  0.5783 -0.4748  0.6635
    47 H(1)   Bbb     0.1465    78.140    27.882    26.065  0.8033  0.4735 -0.3613
              Bcc     0.1714    91.437    32.627    30.500 -0.1426  0.7419  0.6552
 
              Baa    -0.3174  -169.339   -60.424   -56.485  0.3805  0.6905 -0.6152
    48 H(1)   Bbb     0.1475    78.687    28.077    26.247  0.9051 -0.1413  0.4011
              Bcc     0.1699    90.652    32.347    30.238 -0.1901  0.7094  0.6787
 
              Baa    -0.3170  -169.145   -60.355   -56.421  0.9747  0.2196  0.0414
    49 H(1)   Bbb     0.1472    78.529    28.021    26.195  0.1193 -0.6681  0.7344
              Bcc     0.1698    90.616    32.334    30.226 -0.1889  0.7109  0.6774
 
              Baa    -0.3190  -170.199   -60.731   -56.772  0.5878 -0.4725  0.6567
    50 H(1)   Bbb     0.1483    79.119    28.232    26.391  0.7877  0.5192 -0.3315
              Bcc     0.1707    91.080    32.500    30.381 -0.1843  0.7122  0.6774
 
              Baa    -0.3172  -169.217   -60.381   -56.445  0.3699  0.6877 -0.6246
    51 H(1)   Bbb     0.1459    77.842    27.776    25.965  0.8965 -0.0879  0.4342
              Bcc     0.1713    91.376    32.605    30.480 -0.2437  0.7206  0.6491
 

 ---------------------------------------------------------------------------------

 No NMR shielding tensors so no spin-rotation constants.
 Leave Link  601 at Wed Sep 23 16:28:01 2015, MaxMem=    6291456 cpu:       1.3
 Merz-Kollman atomic radii used.
 Atom Element Radius
    1     6    1.50
    2     6    1.50
    3     6    1.50
    4     6    1.50
    5     7    1.50
    6     6    1.50
    7     6    1.50
    8     6    1.50
    9     6    1.50
   10     6    1.50
   11     6    1.50
   12     6    1.50
   13     6    1.50
   14     6    1.50
   15     6    1.50
   16     6    1.50
   17     6    1.50
   18     7    1.50
   19     6    1.50
   20     6    1.50
   21     8    1.40
   22     6    1.50
   23     6    1.50
   24     6    1.50
   25     6    1.50
   26     6    1.50
   27     6    1.50
   28     1    1.20
   29     1    1.20
   30     1    1.20
   31     1    1.20
   32     1    1.20
   33     1    1.20
   34     1    1.20
   35     1    1.20
   36     1    1.20
   37     1    1.20
   38     1    1.20
   39     1    1.20
   40     1    1.20
   41     1    1.20
   42     1    1.20
   43     1    1.20
   44     1    1.20
   45     1    1.20
   46     1    1.20
   47     1    1.20
   48     1    1.20
   49     1    1.20
   50     1    1.20
   51     1    1.20
 Generate VDW surfaces: Layer= 4 Dens= 6 Start= 1.400 Inc= 0.200

 **********************************************************************

            Electrostatic Properties Using The SCF Density

 **********************************************************************

       Atomic Center    1 is at   4.406641 -0.314439 -2.054594
       Atomic Center    2 is at   3.607653  0.319194 -0.899536
       Atomic Center    3 is at   2.488199  1.245376 -1.444709
       Atomic Center    4 is at   1.300364  1.365655 -0.481262
       Atomic Center    5 is at   0.330811  2.340905 -0.977160
       Atomic Center    6 is at  -0.605534  2.974876 -0.145892
       Atomic Center    7 is at  -0.716293  2.703840  1.238733
       Atomic Center    8 is at  -1.679771  3.370658  2.020475
       Atomic Center    9 is at  -2.540961  4.314445  1.429843
       Atomic Center   10 is at  -2.436418  4.589427  0.053866
       Atomic Center   11 is at  -1.474123  3.921573 -0.728602
       Atomic Center   12 is at   0.774907 -0.047687 -0.245293
       Atomic Center   13 is at  -0.600113 -0.371858 -0.310812
       Atomic Center   14 is at  -1.051607 -1.700257 -0.152836
       Atomic Center   15 is at  -0.088476 -2.711764  0.050875
       Atomic Center   16 is at   1.282638 -2.405742  0.111463
       Atomic Center   17 is at   1.725369 -1.067111 -0.005445
       Atomic Center   18 is at   3.117132 -0.718683  0.046353
       Atomic Center   19 is at   3.954907 -1.143594  1.038662
       Atomic Center   20 is at   3.407386 -1.906931  2.248104
       Atomic Center   21 is at   5.169144 -0.905953  1.036545
       Atomic Center   22 is at  -2.491893 -2.024939 -0.215889
       Atomic Center   23 is at  -3.054650 -2.999433  0.641521
       Atomic Center   24 is at  -4.426646 -3.310430  0.585345
       Atomic Center   25 is at  -5.261749 -2.649596 -0.333243
       Atomic Center   26 is at  -4.720261 -1.677636 -1.193685
       Atomic Center   27 is at  -3.346044 -1.369539 -1.132855
       Atomic Center   28 is at   4.279787  0.982047 -0.350977
       Atomic Center   29 is at   1.695122  1.734120  0.467701
       Atomic Center   30 is at   3.786399 -0.997435 -2.637028
       Atomic Center   31 is at   4.785410  0.449536 -2.734254
       Atomic Center   32 is at   5.265466 -0.878557 -1.690845
       Atomic Center   33 is at   2.908234  2.228264 -1.664544
       Atomic Center   34 is at   2.123359  0.853590 -2.395405
       Atomic Center   35 is at   0.358790  2.574187 -1.964415
       Atomic Center   36 is at  -0.080591  1.978714  1.725113
       Atomic Center   37 is at  -1.759303  3.153897  3.076573
       Atomic Center   38 is at  -3.280488  4.825573  2.031138
       Atomic Center   39 is at  -3.096267  5.312275 -0.405006
       Atomic Center   40 is at  -1.411055  4.146957 -1.783933
       Atomic Center   41 is at  -1.325493  0.406447 -0.488138
       Atomic Center   42 is at  -0.397842 -3.743384  0.145853
       Atomic Center   43 is at   1.988932 -3.214052  0.237306
       Atomic Center   44 is at   3.339118 -2.973139  2.036090
       Atomic Center   45 is at   2.427195 -1.537687  2.549909
       Atomic Center   46 is at   4.073505 -1.784164  3.102295
       Atomic Center   47 is at  -2.430840 -3.512311  1.359914
       Atomic Center   48 is at  -4.839200 -4.057350  1.250284
       Atomic Center   49 is at  -6.316529 -2.886981 -0.378057
       Atomic Center   50 is at  -5.356210 -1.166948 -1.902921
       Atomic Center   51 is at  -2.947407 -0.626064 -1.808769
      ESP Fit Center   52 is at   5.952724  0.497008 -0.887896
      ESP Fit Center   53 is at   6.167471  0.500208 -1.250959
      ESP Fit Center   54 is at   5.951179  0.859688 -1.250959
      ESP Fit Center   55 is at   4.092760 -2.229027 -1.250959
[...]
 **** Fit       0.004882
 **** Fit       0.005185
 **** Fit       0.005288
 **** Fit       0.005299
 **** Fit       0.005334
 **** Fit       0.005424
 **** Fit       0.004959
 **** Fit       0.005347
 **** Fit       0.005455
 **** Fit       0.005355
 **** Fit       0.005216
 **** Fit       0.005180
 **** Fit       0.005283
 **** Fit       0.005486
 **** Fit       0.004614
 **** Fit       0.005297
 **** Fit       0.005708
 **** Fit       0.005739
 **** Fit       0.005446
 **** Fit       0.005038
 **** Fit       0.004746
 **** Fit       0.004693
 **** Fit       0.004876
 **** Fit       0.005223
 **** Fit       0.005655
 **** Fit       0.005097
 **** Fit       0.005836
 **** Fit       0.006256
 **** Fit       0.006197
 **** Fit       0.005655
 **** Fit       0.004864
 **** Fit       0.004145
 **** Fit       0.003729
 **** Fit       0.003694
 **** Fit       0.003994
 **** Fit       0.004528
 **** Fit       0.005199
 **** Fit       0.006288
 **** Fit       0.006935
 **** Fit       0.007065
 **** Fit       0.006436
 **** Fit       0.005166
 **** Fit       0.003730
 **** Fit       0.002590
 **** Fit       0.001982
 **** Fit       0.001943
 **** Fit       0.002395
 **** Fit       0.003212
 **** Fit       0.004275
 **** Fit       0.005493
 **** Fit       0.007040
 **** Fit       0.007838
 **** Fit       0.008250
 **** Fit       0.006162
 **** Fit       0.003835
 **** Fit       0.001624
 **** Fit       0.000035
 **** Fit      -0.000802
 **** Fit      -0.000923
 **** Fit       0.002632
 **** Fit       0.001805
 **** Fit       0.002143
 **** Fit       0.002868
 **** Fit       0.003259
 **** Fit       0.003004
 **** Fit       0.002276
 **** Fit       0.000688
 **** Fit       0.000869
 **** Fit       0.001490
 **** Fit       0.002293
 **** Fit       0.003024
 **** Fit       0.003539
 **** Fit       0.003777
 **** Fit       0.003711
 **** Fit       0.003316
 **** Fit       0.002617
 **** Fit       0.001770
 **** Fit       0.001037
 **** Fit      -0.000818
 **** Fit      -0.000703
 **** Fit      -0.000177
 **** Fit       0.000631
 **** Fit       0.001545
 **** Fit       0.002416
 **** Fit       0.003155
 **** Fit       0.003725
 **** Fit       0.003634
 **** Fit       0.002942
 **** Fit       0.002055
 **** Fit       0.001090
 **** Fit       0.000188
 **** Fit      -0.000495
 **** Fit      -0.002834
 **** Fit      -0.002755
 **** Fit      -0.002236
 **** Fit      -0.001366
 **** Fit      -0.000292
 **** Fit       0.000831
 **** Fit       0.001883
 **** Fit       0.002801
 **** Fit       0.002661
 **** Fit       0.001573
 **** Fit       0.000410
 **** Fit      -0.000728
 **** Fit      -0.001728
 **** Fit      -0.002468
 **** Fit      -0.005522
 **** Fit      -0.005480
 **** Fit      -0.004917
 **** Fit      -0.003909
 **** Fit      -0.002599
 **** Fit      -0.001158
 **** Fit       0.000259
 **** Fit       0.001549
 **** Fit       0.002673
 **** Fit       0.001305
 **** Fit      -0.000141
 **** Fit      -0.001594
 **** Fit      -0.002970
 **** Fit      -0.004165
 **** Fit      -0.005057
 **** Fit      -0.009113
 **** Fit      -0.009135
 **** Fit      -0.008535
 **** Fit      -0.007372
 **** Fit      -0.005785
 **** Fit      -0.003960
 **** Fit      -0.002087
 **** Fit      -0.000317
 **** Fit       0.001261
 **** Fit      -0.000678
 **** Fit      -0.002490
 **** Fit      -0.004270
 **** Fit      -0.005941
 **** Fit      -0.007396
 **** Fit      -0.008499
 **** Fit      -0.013961
 **** Fit      -0.014080
 **** Fit      -0.013344
 **** Fit      -0.011814
 **** Fit      -0.009669
 **** Fit      -0.007158
 **** Fit      -0.004546
 **** Fit      -0.002058
 **** Fit      -0.002573
 **** Fit      -0.004951
 **** Fit      -0.007295
 **** Fit      -0.009527
 **** Fit      -0.011508
 **** Fit      -0.013052
 **** Fit      -0.020648
 **** Fit      -0.020957
 **** Fit      -0.020077
 **** Fit      -0.018067
 **** Fit      -0.015154
 **** Fit      -0.011680
 **** Fit      -0.008015
 **** Fit      -0.004488
 **** Fit      -0.008213
 **** Fit      -0.011315
 **** Fit      -0.014326
 **** Fit      -0.017065
 **** Fit      -0.019269
 **** Fit      -0.016267
 **** Fit      -0.020543
 **** Fit       0.005492
 **** Fit       0.005491
 **** Fit       0.004103
 **** Fit       0.004024
 **** Fit       0.005505
 **** Fit       0.006692
 **** Fit       0.006656
 **** Fit       0.005403
 **** Fit       0.003870
 **** Fit       0.002522
 **** Fit       0.001803
 **** Fit       0.002177
 **** Fit       0.003707
 **** Fit       0.005654
 **** Fit       0.007049
 **** Fit       0.007696
 **** Fit       0.007858
 **** Fit       0.007578
 **** Fit       0.006740
 **** Fit       0.005117
 **** Fit       0.003580
 **** Fit       0.002082
 **** Fit       0.000733
 **** Fit      -0.000290
 **** Fit       0.006118
 **** Fit       0.007615
 **** Fit       0.008259
 **** Fit       0.008478
 **** Fit       0.008571
 **** Fit       0.008564
 **** Fit       0.008310
 **** Fit       0.007650
 **** Fit       0.006541
 **** Fit       0.004473
 **** Fit       0.002849
 **** Fit       0.001312
 **** Fit      -0.000143
 **** Fit      -0.001520
 **** Fit       0.009222
 **** Fit       0.009036
 **** Fit       0.008957
 **** Fit       0.009012
 **** Fit       0.009077
 **** Fit       0.008962
 **** Fit       0.008473
 **** Fit       0.007499
 **** Fit       0.006095
 **** Fit       0.003202
 **** Fit       0.001400
 **** Fit      -0.000147
 **** Fit      -0.001541
 **** Fit       0.009717
 **** Fit       0.009165
 **** Fit       0.009020
 **** Fit       0.009155
 **** Fit       0.009389
 **** Fit       0.009510
 **** Fit       0.009282
 **** Fit       0.008496
 **** Fit       0.007078
 **** Fit       0.005195
 **** Fit       0.009367
 **** Fit       0.008763
 **** Fit       0.008720
 **** Fit       0.009027
 **** Fit       0.009493
 **** Fit       0.009913
 **** Fit       0.010035
 **** Fit       0.009568
 **** Fit       0.008039
 **** Fit       0.007897
 **** Fit       0.008295
 **** Fit       0.009018
 **** Fit       0.009876
 **** Fit       0.010628
 **** Fit       0.006992
 **** Fit       0.007963
 **** Fit       0.009241
 **** Fit       0.010673
 **** Fit       0.007443
 **** Fit       0.009454
 **** Fit       0.005820
 **** Fit       0.005715
 **** Fit       0.004367
 **** Fit       0.004695
 **** Fit       0.006030
 **** Fit       0.006889
 **** Fit       0.006846
 **** Fit       0.005825
 **** Fit       0.003837
 **** Fit       0.002450
 **** Fit       0.002415
 **** Fit       0.003488
 **** Fit       0.004971
 **** Fit       0.006279
 **** Fit       0.007158
 **** Fit       0.007623
 **** Fit       0.007801
 **** Fit       0.007743
 **** Fit       0.007222
 **** Fit       0.000720
 **** Fit       0.002217
 **** Fit       0.003877
 **** Fit       0.005372
 **** Fit       0.006533
 **** Fit       0.007326
 **** Fit       0.007803
 **** Fit       0.008058
 **** Fit       0.008200
 **** Fit       0.008326
 **** Fit       0.008471
 **** Fit       0.008495
 **** Fit       0.007966
 **** Fit       0.001559
 **** Fit       0.003441
 **** Fit       0.005051
 **** Fit       0.006296
 **** Fit       0.007172
 **** Fit       0.007729
 **** Fit       0.008041
 **** Fit       0.008188
 **** Fit       0.008255
 **** Fit       0.008334
 **** Fit       0.008517
 **** Fit       0.008880
 **** Fit       0.009419
 **** Fit       0.001863
 **** Fit       0.003854
 **** Fit       0.005434
 **** Fit       0.006586
 **** Fit       0.007357
 **** Fit       0.007820
 **** Fit       0.008052
 **** Fit       0.008124
 **** Fit       0.008104
 **** Fit       0.008066
 **** Fit       0.008090
 **** Fit       0.008275
 **** Fit       0.008735
 **** Fit       0.009593
 **** Fit       0.002508
 **** Fit       0.004471
 **** Fit       0.005925
 **** Fit       0.006917
 **** Fit       0.007532
 **** Fit       0.007860
 **** Fit       0.007979
 **** Fit       0.007953
 **** Fit       0.007837
 **** Fit       0.007683
 **** Fit       0.007547
 **** Fit       0.007499
 **** Fit       0.007630
 **** Fit       0.008061
 **** Fit       0.008967
 **** Fit       0.005094
 **** Fit       0.006481
 **** Fit       0.007315
 **** Fit       0.007740
 **** Fit       0.007880
 **** Fit       0.007828
 **** Fit       0.007652
 **** Fit       0.007399
 **** Fit       0.007110
 **** Fit       0.006831
 **** Fit       0.006618
 **** Fit       0.006544
 **** Fit       0.006715
 **** Fit       0.007289
 **** Fit       0.007351
 **** Fit       0.007885
 **** Fit       0.008005
 **** Fit       0.007873
 **** Fit       0.007594
 **** Fit       0.007227
 **** Fit       0.006811
 **** Fit       0.006373
 **** Fit       0.005941
 **** Fit       0.005553
 **** Fit       0.005260
 **** Fit       0.005136
 **** Fit       0.005289
 **** Fit       0.008588
 **** Fit       0.008124
 **** Fit       0.007551
 **** Fit       0.006938
 **** Fit       0.006313
 **** Fit       0.005688
 **** Fit       0.005074
 **** Fit       0.004485
 **** Fit       0.003946
 **** Fit       0.003497
 **** Fit       0.007704
 **** Fit       0.006644
 **** Fit       0.005673
 **** Fit       0.004768
 **** Fit       0.003909
 **** Fit       0.003085
 **** Fit       0.002297
 **** Fit       0.004227
 **** Fit       0.002995
 **** Fit       0.004018
 **** Fit       0.005762
 **** Fit       0.007326
 **** Fit       0.002408
 **** Fit       0.004223
 **** Fit       0.005642
 **** Fit       0.006771
 **** Fit       0.007755
 **** Fit       0.001895
 **** Fit       0.003726
 **** Fit       0.005149
 **** Fit       0.006228
 **** Fit       0.007030
 **** Fit       0.007630
 **** Fit       0.008129
 **** Fit       0.008675
 **** Fit       0.001613
 **** Fit       0.003417
 **** Fit       0.004837
 **** Fit       0.005925
 **** Fit       0.006723
 **** Fit       0.007267
 **** Fit       0.007598
 **** Fit       0.007759
 **** Fit       0.007805
 **** Fit       0.007800
 **** Fit       0.000918
 **** Fit       0.002860
 **** Fit       0.004398
 **** Fit       0.005592
 **** Fit       0.006482
 **** Fit       0.007097
 **** Fit       0.007463
 **** Fit       0.007599
 **** Fit       0.007529
 **** Fit       0.007273
 **** Fit       0.006847
 **** Fit       0.006246
 **** Fit       0.002436
 **** Fit       0.004022
 **** Fit       0.005273
 **** Fit       0.006230
 **** Fit       0.006922
 **** Fit       0.007365
 **** Fit       0.007573
 **** Fit       0.007554
 **** Fit       0.007316
 **** Fit       0.006863
 **** Fit       0.006187
 **** Fit       0.005262
 **** Fit       0.002863
 **** Fit       0.004313
 **** Fit       0.005459
 **** Fit       0.006343
 **** Fit       0.006984
 **** Fit       0.007393
 **** Fit       0.007575
 **** Fit       0.007534
 **** Fit       0.007268
 **** Fit       0.006773
 **** Fit       0.006039
 **** Fit       0.005040
 **** Fit       0.003727
 **** Fit       0.003106
 **** Fit       0.004461
 **** Fit       0.005534
 **** Fit       0.006368
 **** Fit       0.006980
 **** Fit       0.007371
 **** Fit       0.007539
 **** Fit       0.007478
 **** Fit       0.007181
 **** Fit       0.006637
 **** Fit       0.005831
 **** Fit       0.004735
 **** Fit       0.003302
 **** Fit       0.005362
 **** Fit       0.006135
 **** Fit       0.006748
 **** Fit       0.007186
 **** Fit       0.007429
 **** Fit       0.007458
 **** Fit       0.007253
 **** Fit       0.006796
 **** Fit       0.006066
 **** Fit       0.005037
 **** Fit       0.003668
 **** Fit       0.001900
 **** Fit       0.006958
 **** Fit       0.007204
 **** Fit       0.007381
 **** Fit       0.007424
 **** Fit       0.007282
 **** Fit       0.006917
 **** Fit       0.006295
 **** Fit       0.005383
 **** Fit       0.004145
 **** Fit       0.002530
 **** Fit       0.007852
 **** Fit       0.007633
 **** Fit       0.007407
 **** Fit       0.007046
 **** Fit       0.006463
 **** Fit       0.005594
 **** Fit       0.004383
 **** Fit       0.002770
 **** Fit       0.008110
 **** Fit       0.007444
 **** Fit       0.006774
 **** Fit       0.005918
 **** Fit       0.004755
 **** Fit       0.003196
 **** Fit       0.007088
 **** Fit       0.005922
 **** Fit       0.004517
 **** Fit       0.002687
 **** Fit      -0.000588
 **** Fit       0.000605
 **** Fit       0.001795
 **** Fit       0.002997
 **** Fit       0.004247
 **** Fit       0.005596
 **** Fit       0.007109
 **** Fit       0.000305
 **** Fit       0.001187
 **** Fit       0.002115
 **** Fit       0.003053
 **** Fit       0.003986
 **** Fit       0.004917
 **** Fit       0.005855
 **** Fit       0.006806
 **** Fit       0.007753
 **** Fit       0.001679
 **** Fit       0.001953
 **** Fit       0.002499
 **** Fit       0.003181
 **** Fit       0.003917
 **** Fit       0.004661
 **** Fit       0.005388
 **** Fit       0.006082
 **** Fit       0.006728
 **** Fit       0.007296
 **** Fit       0.007722
 **** Fit       0.007881
 **** Fit       0.007562
 **** Fit       0.003928
 **** Fit       0.003737
 **** Fit       0.003949
 **** Fit       0.004385
 **** Fit       0.004927
 **** Fit       0.005502
 **** Fit       0.006061
 **** Fit       0.006569
 **** Fit       0.006993
 **** Fit       0.007289
 **** Fit       0.007386
 **** Fit       0.007176
 **** Fit       0.006505
 **** Fit       0.005204
 **** Fit       0.005940
 **** Fit       0.005364
 **** Fit       0.005258
 **** Fit       0.005442
 **** Fit       0.005784
 **** Fit       0.006189
 **** Fit       0.006590
 **** Fit       0.006936
 **** Fit       0.007181
 **** Fit       0.007273
 **** Fit       0.007145
 **** Fit       0.006709
 **** Fit       0.005859
 **** Fit       0.004504
 **** Fit       0.007068
 **** Fit       0.006481
 **** Fit       0.006292
 **** Fit       0.006376
 **** Fit       0.006608
 **** Fit       0.006886
 **** Fit       0.007128
 **** Fit       0.007266
 **** Fit       0.007233
 **** Fit       0.006957
 **** Fit       0.006352
 **** Fit       0.005342
 **** Fit       0.003878
 **** Fit       0.001995
 **** Fit       0.007439
 **** Fit       0.007066
 **** Fit       0.006904
 **** Fit       0.006937
 **** Fit       0.007076
 **** Fit       0.007219
 **** Fit       0.007273
 **** Fit       0.007152
 **** Fit       0.006773
 **** Fit       0.006059
 **** Fit       0.004959
 **** Fit       0.003482
 **** Fit       0.001735
 **** Fit       0.005486
 **** Fit       0.006698
 **** Fit       0.007088
 **** Fit       0.007105
 **** Fit       0.007094
 **** Fit       0.007144
 **** Fit       0.007194
 **** Fit       0.007131
 **** Fit       0.006841
 **** Fit       0.006224
 **** Fit       0.005223
 **** Fit       0.003876
 **** Fit       0.002359
 **** Fit       0.000995
 **** Fit       0.005226
 **** Fit       0.006328
 **** Fit       0.006782
 **** Fit       0.006933
 **** Fit       0.006925
 **** Fit       0.006656
 **** Fit       0.005971
 **** Fit       0.004840
 **** Fit       0.003505
 **** Fit       0.002522
 **** Fit       0.002511
 **** Fit       0.003638
 **** Fit       0.005270
 **** Fit       0.006217
 **** Fit       0.006355
 **** Fit       0.005709
 **** Fit       0.004546
 **** Fit       0.004198
 **** Fit       0.005459
 **** Fit      -0.002569
 **** Fit      -0.002487
 **** Fit      -0.000689
 **** Fit      -0.000308
 **** Fit      -0.000023
 **** Fit       0.000362
 **** Fit       0.000454
 **** Fit       0.001318
 **** Fit       0.001760
 **** Fit       0.002047
 **** Fit       0.002407
 **** Fit       0.003025
 **** Fit       0.002136
 **** Fit       0.002747
 **** Fit       0.003273
 **** Fit       0.003598
 **** Fit       0.003800
 **** Fit       0.004048
 **** Fit       0.004504
 **** Fit       0.005350
 **** Fit      -0.004337
 **** Fit       0.002039
 **** Fit       0.003178
 **** Fit       0.003970
 **** Fit       0.004505
 **** Fit       0.004861
 **** Fit       0.005064
 **** Fit       0.005197
 **** Fit       0.005404
 **** Fit       0.005841
 **** Fit       0.006666
 **** Fit      -0.003325
 **** Fit      -0.002114
 **** Fit      -0.000794
 **** Fit       0.000641
 **** Fit       0.003381
 **** Fit       0.004470
 **** Fit       0.005227
 **** Fit       0.005681
 **** Fit       0.005917
 **** Fit       0.006053
 **** Fit       0.006234
 **** Fit       0.006600
 **** Fit       0.007232
 **** Fit      -0.001915
 **** Fit      -0.000688
 **** Fit       0.000647
 **** Fit       0.002048
 **** Fit       0.004100
 **** Fit       0.005145
 **** Fit       0.005835
 **** Fit       0.006210
 **** Fit       0.006410
 **** Fit       0.006598
 **** Fit       0.006864
 **** Fit       0.007098
 **** Fit       0.006849
 **** Fit      -0.000729
 **** Fit       0.000213
 **** Fit       0.001445
 **** Fit       0.002801
 **** Fit       0.004443
 **** Fit       0.005474
 **** Fit       0.006064
 **** Fit       0.006323
 **** Fit       0.006385
 **** Fit       0.006067
 **** Fit       0.004902
 **** Fit       0.003045
 **** Fit       0.001577
 **** Fit       0.001236
 **** Fit       0.001904
 **** Fit       0.003124
 **** Fit       0.004571
 **** Fit       0.005521
 **** Fit       0.005620
 **** Fit       0.004670
 **** Fit       0.003311
 **** Fit       0.003367
 **** Fit       0.004608
 -----------------------------------------------------------------
 Leave Link  602 at Thu Sep 24 00:11:30 2015, MaxMem=    6291456 cpu:      13.5

 Test job not archived.
 1\1\GINC-COMPUTE-1-2\FOpt\RHF\6-31G(d)\C24H24N2O1\SHUNZHOU\24-Sep-2015
 \0\\#HF/6-31G* SCF=tight Test Pop=MK iop(6/33=2) iop(6/42=6) opt\\rema
 rk line goes here\\0,1\C,15.0090224647,5.9740734774,9.9617273153\C,14.
 0640330834,5.0428506134,9.2078249261\C,14.82651263,4.054070853,8.30394
 33824\C,14.0958211366,2.7113596162,8.1777787862\N,14.7781729764,1.8459
 462583,7.2388153513\C,14.0905151158,0.985936176,6.3843039015\C,12.8377
 471369,0.4667848822,6.7034632072\C,12.2025308027,-0.4072300422,5.83467
 78125\C,12.792527075,-0.7884400393,4.643715577\C,14.0439164,-0.2788152
 904,4.328778772\C,14.6853981957,0.5965576989,5.1818723686\C,14.0204460
 153,2.1508383835,9.5870521615\C,14.4492285989,0.8887344492,9.951940007
 9\C,14.420827676,0.4719381266,11.2823916282\C,13.9841966122,1.37357905
 7,12.2460695891\C,13.5777029264,2.6498060365,11.8951711685\C,13.564159
 8668,3.0322302957,10.5647600514\N,13.1657596897,4.3225784225,10.131995
 6464\C,11.979595994,4.9279701555,10.4521418987\C,10.9258664699,4.13772
 28572,11.2028302335\O,11.7557444469,6.0624847956,10.1248132915\C,14.86
 80872227,-0.8980111785,11.6633832946\C,14.1402588758,-1.6568337898,12.
 5767970159\C,14.5552194101,-2.9284999929,12.9344992454\C,15.706472029,
 -3.4669962638,12.383931667\C,16.4386536368,-2.7231101532,11.473048418\
 C,16.0236721687,-1.4512688532,11.1168911534\H,13.4154813177,5.64052425
 96,8.5875759936\H,13.0867757484,2.9100355044,7.8231626063\H,15.6298424
 225,5.4137155048,10.6544209597\H,15.6630594477,6.4940467444,9.26715056
 16\H,14.4447915101,6.7132850892,10.5156966309\H,14.9529764481,4.508899
 0737,7.3257345564\H,15.8187735385,3.8612911016,8.7025164978\H,15.57104
 35029,2.2691505618,6.8107140561\H,12.3635604284,0.7248369158,7.6314662
 207\H,11.2354920254,-0.7949216907,6.1028996005\H,12.2937806645,-1.4675
 645742,3.9766984484\H,14.5238668176,-0.5607924453,3.4081309979\H,15.65
 52446425,0.9850143719,4.9204125997\H,14.7943364315,0.2190109032,9.1882
 060871\H,13.9966736409,1.0942685162,13.2838715676\H,13.2889716665,3.34
 81761357,12.6584561567\H,11.065924811,4.2483324895,12.2721822773\H,10.
 9308112213,3.0830126465,10.9669065572\H,9.9700614924,4.5715958703,10.9
 459570893\H,13.233093667,-1.2584726376,12.9945408295\H,13.9747064959,-
 3.5002147584,13.636592235\H,16.02877612,-4.454869665,12.6604938819\H,1
 7.3370476802,-3.1294125499,11.0435342951\H,16.6108196025,-0.8772039189
 ,10.4230614225\\Version=AM64L-G03RevD.02\State=1-A\HF=-1106.6081064\RM
 SD=4.203e-09\RMSF=6.115e-06\Thermal=0.\Dipole=0.6776849,-0.8457587,0.1
 034665\PG=C01 [X(C24H24N2O1)]\\@


 Children are likely to live up to what you believe of them.
 -- Lady Bird Johnson
 Job cpu time:  0 days  8 hours  3 minutes 56.3 seconds.
 File lengths (MBytes):  RWF=    139 Int=      0 D2E=      0 Chk=     20 Scr=      1
 Normal termination of Gaussian 03 at Thu Sep 24 00:11:30 2015.
