 Entering Gaussian System, Link 0=g03
 Initial command:
 /share/apps//g03/g1.exe /state/partition1/mmpbsa.DA5680/Gau-5687.inp -scrdir=/state/partition1/mmpbsa.DA5680/
 Entering Link 1 = /share/apps//g03/g1.exe PID=      5688.
  
 Copyright (c) 1988,1990,1992,1993,1995,1998,2003,2004, Gaussian, Inc.
                  All Rights Reserved.
  
 This is the Gaussian(R) 03 program.  It is based on the
 the Gaussian(R) 98 system (copyright 1998, Gaussian, Inc.),
 the Gaussian(R) 94 system (copyright 1995, Gaussian, Inc.),
 the Gaussian 92(TM) system (copyright 1992, Gaussian, Inc.),
 the Gaussian 90(TM) system (copyright 1990, Gaussian, Inc.),
 the Gaussian 88(TM) system (copyright 1988, Gaussian, Inc.),
 the Gaussian 86(TM) system (copyright 1986, Carnegie Mellon
 University), and the Gaussian 82(TM) system (copyright 1983,
 Carnegie Mellon University). Gaussian is a federally registered
 trademark of Gaussian, Inc.
  
 This software contains proprietary and confidential information,
 including trade secrets, belonging to Gaussian, Inc.
  
 This software is provided under written license and may be
 used, copied, transmitted, or stored only in accord with that
 written license.
  
 The following legend is applicable only to US Government
 contracts under FAR:
  
                    RESTRICTED RIGHTS LEGEND
  
 Use, reproduction and disclosure by the US Government is
 subject to restrictions as set forth in subparagraphs (a)
 and (c) of the Commercial Computer Software - Restricted
 Rights clause in FAR 52.227-19.
  
 Gaussian, Inc.
 340 Quinnipiac St., Bldg. 40, Wallingford CT 06492
  
  
 ---------------------------------------------------------------
 Warning -- This program may not be used in any manner that
 competes with the business of Gaussian, Inc. or will provide
 assistance to any competitor of Gaussian, Inc.  The licensee
 of this program is prohibited from giving any competitor of
 Gaussian, Inc. access to this program.  By using this program,
 the user acknowledges that Gaussian, Inc. is engaged in the
 business of creating and licensing software in the field of
 computational chemistry and represents and warrants to the
 licensee that it is not a competitor of Gaussian, Inc. and that
 it will not use this program in any manner prohibited above.
 ---------------------------------------------------------------
  

 Cite this work as:
 Gaussian 03, Revision D.02,
 M. J. Frisch, G. W. Trucks, H. B. Schlegel, G. E. Scuseria, 
 M. A. Robb, J. R. Cheeseman, J. A. Montgomery, Jr., T. Vreven, 
 K. N. Kudin, J. C. Burant, J. M. Millam, S. S. Iyengar, J. Tomasi, 
 V. Barone, B. Mennucci, M. Cossi, G. Scalmani, N. Rega, 
 G. A. Petersson, H. Nakatsuji, M. Hada, M. Ehara, K. Toyota, 
 R. Fukuda, J. Hasegawa, M. Ishida, T. Nakajima, Y. Honda, O. Kitao, 
 H. Nakai, M. Klene, X. Li, J. E. Knox, H. P. Hratchian, J. B. Cross, 
 V. Bakken, C. Adamo, J. Jaramillo, R. Gomperts, R. E. Stratmann, 
 O. Yazyev, A. J. Austin, R. Cammi, C. Pomelli, J. W. Ochterski, 
 P. Y. Ayala, K. Morokuma, G. A. Voth, P. Salvador, J. J. Dannenberg, 
 V. G. Zakrzewski, S. Dapprich, A. D. Daniels, M. C. Strain, 
 O. Farkas, D. K. Malick, A. D. Rabuck, K. Raghavachari, 
 J. B. Foresman, J. V. Ortiz, Q. Cui, A. G. Baboul, S. Clifford, 
 J. Cioslowski, B. B. Stefanov, G. Liu, A. Liashenko, P. Piskorz, 
 I. Komaromi, R. L. Martin, D. J. Fox, T. Keith, M. A. Al-Laham, 
 C. Y. Peng, A. Nanayakkara, M. Challacombe, P. M. W. Gill, 
 B. Johnson, W. Chen, M. W. Wong, C. Gonzalez, and J. A. Pople, 
 Gaussian, Inc., Wallingford CT, 2004.
 
 ******************************************
 Gaussian 03:  AM64L-G03RevD.02  1-Mar-2006
                23-Sep-2015 
 ******************************************
 %chk=molecule
 ------------------------------------------------------------
 #HF/6-31G* SCF=tight Test Pop=MK iop(6/33=2) iop(6/42=6) opt
 ------------------------------------------------------------
 1/18=20,38=1/1,3;
 2/9=110,17=6,18=5,40=1/2;
 3/5=1,6=6,7=1,11=9,16=1,25=1,30=1/1,2,3;
 4//1;
 5/5=2,32=2,38=5/2;
 6/7=2,8=2,9=2,10=2,15=8,20=1,28=1,33=2,42=6/1,2;
 7//1,2,3,16;
 1/18=20/3(3);
 2/9=110/2;
 6/7=2,8=2,9=2,10=2,15=8,19=2,20=1,28=1,33=2,42=6/1,2;
 99//99;
 2/9=110/2;
 3/5=1,6=6,7=1,11=9,16=1,25=1,30=1/1,2,3;
 4/5=5,16=3/1;
 5/5=2,32=2,38=5/2;
 7//1,2,3,16;
 1/18=20/3(-5);
 2/9=110/2;
 6/7=2,8=2,9=2,10=2,15=8,19=2,20=1,28=1,33=2,42=6/1,2;
 99/9=1/99;
 ---------------------
 remark line goes here
 ---------------------
 Symbolic Z-matrix:
 Charge =  0 Multiplicity = 1
 C                     15.329   -5.691     13.163 
 O                     16.004   -4.901     12.191 
 C                     15.561   -3.613     11.983 
 C                     14.476   -3.02      12.672 
 C                     14.093   -1.693     12.392 
 C                     14.775   -0.923     11.424 
 C                     15.857   -1.524     10.741 
 C                     16.243   -2.849     11.017 
 C                     14.369    0.467     11.134 
 C                     13.958    1.334     12.169 
 C                     13.569    2.658     11.895 
 C                     13.558    3.142     10.567 
 N                     13.174    4.489     10.252 
 C                     13.962    5.21      9.216 
 C                     14.909    6.243     9.858 
 C                     14.739    4.27      8.257 
 C                     14.081    2.891     8.12 
 N                     14.775    2.086     7.116 
 C                     14.177    0.992     6.471 
 C                     12.863    0.55      6.76 
 C                     12.318   -0.558     6.082 
 C                     13.077   -1.235     5.109 
 C                     14.384   -0.801     4.816 
 C                     14.929    0.306     5.495 
 C                     14.001    2.297     9.523 
 C                     14.395    0.97      9.814 
 C                     12.018    5.059     10.705 
 C                     10.983    4.224     11.464 
 O                     11.731    6.244     10.496 
 H                     13.261    5.75      8.576 
 H                     13.06     3.057     7.772 
 H                     15.396   -5.246     14.157 
 H                     14.279   -5.834     12.904 
 H                     15.791   -6.676     13.213 
 H                     13.915   -3.56      13.421 
 H                     13.256   -1.269     12.927 
 H                     16.408   -0.964     9.999 
 H                     17.076   -3.282     10.48 
 H                     13.955    0.99      13.194 
 H                     13.293    3.297     12.721 
 H                     15.468    6.788     9.097 
 H                     14.362    6.98      10.448 
 H                     15.63     5.762     10.52 
 H                     14.836    4.75      7.282 
 H                     15.757    4.132     8.628 
 H                     15.722    2.353     6.867 
 H                     12.255    1.038     7.507 
 H                     11.316   -0.89      6.312 
 H                     12.658   -2.086     4.589 
 H                     14.971   -1.319     4.07 
 H                     15.935    0.622     5.256 
 H                     14.726    0.323     9.017 
 H                     10.916    3.209     11.073 
 H                     11.221    4.185     12.526 
 H                     9.994     4.672     11.366 
 

 GradGradGradGradGradGradGradGradGradGradGradGradGradGradGradGradGradGrad
 Berny optimization.
 Initialization pass.
                           ----------------------------
                           !    Initial Parameters    !
                           ! (Angstroms and Degrees)  !
 --------------------------                            --------------------------
 ! Name  Definition              Value          Derivative Info.                !
 --------------------------------------------------------------------------------
 ! R1    R(1,2)                  1.4229         estimate D2E/DX2                !
 ! R2    R(1,32)                 1.0911         estimate D2E/DX2                !
 ! R3    R(1,33)                 1.0909         estimate D2E/DX2                !
 ! R4    R(1,34)                 1.0891         estimate D2E/DX2                !
 ! R5    R(2,3)                  1.3778         estimate D2E/DX2                !
 ! R6    R(3,4)                  1.4155         estimate D2E/DX2                !
 ! R7    R(3,8)                  1.4078         estimate D2E/DX2                !
 ! R8    R(4,5)                  1.4093         estimate D2E/DX2                !
 ! R9    R(4,35)                 1.0804         estimate D2E/DX2                !
 ! R10   R(5,6)                  1.4125         estimate D2E/DX2                !
 ! R11   R(5,36)                 1.0801         estimate D2E/DX2                !
 ! R12   R(6,7)                  1.4137         estimate D2E/DX2                !
 ! R13   R(6,9)                  1.4768         estimate D2E/DX2                !
 ! R14   R(7,8)                  1.4074         estimate D2E/DX2                !
 ! R15   R(7,37)                 1.0806         estimate D2E/DX2                !
 ! R16   R(8,38)                 1.0815         estimate D2E/DX2                !
 ! R17   R(9,10)                 1.4113         estimate D2E/DX2                !
 ! R18   R(9,26)                 1.4128         estimate D2E/DX2                !
 ! R19   R(10,11)                1.4069         estimate D2E/DX2                !
 ! R20   R(10,39)                1.0812         estimate D2E/DX2                !
 ! R21   R(11,12)                1.4135         estimate D2E/DX2                !
 ! R22   R(11,40)                1.0802         estimate D2E/DX2                !
 ! R23   R(12,13)                1.4356         estimate D2E/DX2                !
 ! R24   R(12,25)                1.4143         estimate D2E/DX2                !
 ! R25   R(13,14)                1.488          estimate D2E/DX2                !
 ! R26   R(13,27)                1.3662         estimate D2E/DX2                !
 ! R27   R(14,15)                1.5414         estimate D2E/DX2                !
 ! R28   R(14,16)                1.5515         estimate D2E/DX2                !
 ! R29   R(14,30)                1.0921         estimate D2E/DX2                !
 ! R30   R(15,41)                1.0902         estimate D2E/DX2                !
 ! R31   R(15,42)                1.0911         estimate D2E/DX2                !
 ! R32   R(15,43)                1.0906         estimate D2E/DX2                !
 ! R33   R(16,17)                1.5341         estimate D2E/DX2                !
 ! R34   R(16,44)                1.0911         estimate D2E/DX2                !
 ! R35   R(16,45)                1.0922         estimate D2E/DX2                !
 ! R36   R(17,18)                1.4621         estimate D2E/DX2                !
 ! R37   R(17,25)                1.5257         estimate D2E/DX2                !
 ! R38   R(17,31)                1.0914         estimate D2E/DX2                !
 ! R39   R(18,19)                1.4037         estimate D2E/DX2                !
 ! R40   R(18,46)                1.0149         estimate D2E/DX2                !
 ! R41   R(19,20)                1.4162         estimate D2E/DX2                !
 ! R42   R(19,24)                1.4102         estimate D2E/DX2                !
 ! R43   R(20,21)                1.4087         estimate D2E/DX2                !
 ! R44   R(20,47)                1.0797         estimate D2E/DX2                !
 ! R45   R(21,22)                1.4075         estimate D2E/DX2                !
 ! R46   R(21,48)                1.0803         estimate D2E/DX2                !
 ! R47   R(22,23)                1.408          estimate D2E/DX2                !
 ! R48   R(22,49)                1.0817         estimate D2E/DX2                !
 ! R49   R(23,24)                1.4084         estimate D2E/DX2                !
 ! R50   R(23,50)                1.0814         estimate D2E/DX2                !
 ! R51   R(24,51)                1.0812         estimate D2E/DX2                !
 ! R52   R(25,26)                1.4145         estimate D2E/DX2                !
 ! R53   R(26,52)                1.0786         estimate D2E/DX2                !
 ! R54   R(27,28)                1.5312         estimate D2E/DX2                !
 ! R55   R(27,29)                1.237          estimate D2E/DX2                !
 ! R56   R(28,53)                1.0898         estimate D2E/DX2                !
 ! R57   R(28,54)                1.089          estimate D2E/DX2                !
 ! R58   R(28,55)                1.0902         estimate D2E/DX2                !
 ! A1    A(2,1,32)             111.5158         estimate D2E/DX2                !
 ! A2    A(2,1,33)             111.5437         estimate D2E/DX2                !
 ! A3    A(2,1,34)             109.4065         estimate D2E/DX2                !
 ! A4    A(32,1,33)            109.1992         estimate D2E/DX2                !
 ! A5    A(32,1,34)            107.5164         estimate D2E/DX2                !
 ! A6    A(33,1,34)            107.4963         estimate D2E/DX2                !
 ! A7    A(1,2,3)              118.0095         estimate D2E/DX2                !
 ! A8    A(2,3,4)              124.3737         estimate D2E/DX2                !
 ! A9    A(2,3,8)              117.0729         estimate D2E/DX2                !
 ! A10   A(4,3,8)              118.5534         estimate D2E/DX2                !
 ! A11   A(3,4,5)              120.4039         estimate D2E/DX2                !
 ! A12   A(3,4,35)             121.74           estimate D2E/DX2                !
 ! A13   A(5,4,35)             117.856          estimate D2E/DX2                !
 ! A14   A(4,5,6)              121.216          estimate D2E/DX2                !
 ! A15   A(4,5,36)             118.8058         estimate D2E/DX2                !
 ! A16   A(6,5,36)             119.9761         estimate D2E/DX2                !
 ! A17   A(5,6,7)              117.9639         estimate D2E/DX2                !
 ! A18   A(5,6,9)              120.9928         estimate D2E/DX2                !
 ! A19   A(7,6,9)              121.0433         estimate D2E/DX2                !
 ! A20   A(6,7,8)              121.0254         estimate D2E/DX2                !
 ! A21   A(6,7,37)             120.1122         estimate D2E/DX2                !
 ! A22   A(8,7,37)             118.8607         estimate D2E/DX2                !
 ! A23   A(3,8,7)              120.8373         estimate D2E/DX2                !
 ! A24   A(3,8,38)             119.7708         estimate D2E/DX2                !
 ! A25   A(7,8,38)             119.3917         estimate D2E/DX2                !
 ! A26   A(6,9,10)             120.9473         estimate D2E/DX2                !
 ! A27   A(6,9,26)             120.8969         estimate D2E/DX2                !
 ! A28   A(10,9,26)            118.1523         estimate D2E/DX2                !
 ! A29   A(9,10,11)            121.0519         estimate D2E/DX2                !
 ! A30   A(9,10,39)            120.0393         estimate D2E/DX2                !
 ! A31   A(11,10,39)           118.9002         estimate D2E/DX2                !
 ! A32   A(10,11,12)           120.4884         estimate D2E/DX2                !
 ! A33   A(10,11,40)           118.5832         estimate D2E/DX2                !
 ! A34   A(12,11,40)           120.9233         estimate D2E/DX2                !
 ! A35   A(11,12,13)           121.9713         estimate D2E/DX2                !
 ! A36   A(11,12,25)           119.1116         estimate D2E/DX2                !
 ! A37   A(13,12,25)           118.842          estimate D2E/DX2                !
 ! A38   A(12,13,14)           117.7585         estimate D2E/DX2                !
 ! A39   A(12,13,27)           123.0268         estimate D2E/DX2                !
 ! A40   A(14,13,27)           118.4768         estimate D2E/DX2                !
 ! A41   A(13,14,15)           111.1057         estimate D2E/DX2                !
 ! A42   A(13,14,16)           113.7041         estimate D2E/DX2                !
 ! A43   A(13,14,30)           107.9203         estimate D2E/DX2                !
 ! A44   A(15,14,16)           110.8422         estimate D2E/DX2                !
 ! A45   A(15,14,30)           107.8827         estimate D2E/DX2                !
 ! A46   A(16,14,30)           105.0001         estimate D2E/DX2                !
 ! A47   A(14,15,41)           111.0563         estimate D2E/DX2                !
 ! A48   A(14,15,42)           111.7084         estimate D2E/DX2                !
 ! A49   A(14,15,43)           111.309          estimate D2E/DX2                !
 ! A50   A(41,15,42)           107.2675         estimate D2E/DX2                !
 ! A51   A(41,15,43)           107.7699         estimate D2E/DX2                !
 ! A52   A(42,15,43)           107.524          estimate D2E/DX2                !
 ! A53   A(14,16,17)           112.6453         estimate D2E/DX2                !
 ! A54   A(14,16,44)           109.2899         estimate D2E/DX2                !
 ! A55   A(14,16,45)           109.4733         estimate D2E/DX2                !
 ! A56   A(17,16,44)           110.7195         estimate D2E/DX2                !
 ! A57   A(17,16,45)           108.453          estimate D2E/DX2                !
 ! A58   A(44,16,45)           106.0368         estimate D2E/DX2                !
 ! A59   A(16,17,18)           110.65           estimate D2E/DX2                !
 ! A60   A(16,17,25)           106.8789         estimate D2E/DX2                !
 ! A61   A(16,17,31)           107.0386         estimate D2E/DX2                !
 ! A62   A(18,17,25)           116.2321         estimate D2E/DX2                !
 ! A63   A(18,17,31)           107.9894         estimate D2E/DX2                !
 ! A64   A(25,17,31)           107.6614         estimate D2E/DX2                !
 ! A65   A(17,18,19)           122.8483         estimate D2E/DX2                !
 ! A66   A(17,18,46)           117.8087         estimate D2E/DX2                !
 ! A67   A(19,18,46)           119.3265         estimate D2E/DX2                !
 ! A68   A(18,19,20)           123.0079         estimate D2E/DX2                !
 ! A69   A(18,19,24)           118.0317         estimate D2E/DX2                !
 ! A70   A(20,19,24)           118.9602         estimate D2E/DX2                !
 ! A71   A(19,20,21)           120.4146         estimate D2E/DX2                !
 ! A72   A(19,20,47)           121.5074         estimate D2E/DX2                !
 ! A73   A(21,20,47)           118.0746         estimate D2E/DX2                !
 ! A74   A(20,21,22)           120.1595         estimate D2E/DX2                !
 ! A75   A(20,21,48)           119.8733         estimate D2E/DX2                !
 ! A76   A(22,21,48)           119.967          estimate D2E/DX2                !
 ! A77   A(21,22,23)           119.7461         estimate D2E/DX2                !
 ! A78   A(21,22,49)           120.1207         estimate D2E/DX2                !
 ! A79   A(23,22,49)           120.1332         estimate D2E/DX2                !
 ! A80   A(22,23,24)           120.0772         estimate D2E/DX2                !
 ! A81   A(22,23,50)           119.986          estimate D2E/DX2                !
 ! A82   A(24,23,50)           119.9367         estimate D2E/DX2                !
 ! A83   A(19,24,23)           120.6423         estimate D2E/DX2                !
 ! A84   A(19,24,51)           120.4626         estimate D2E/DX2                !
 ! A85   A(23,24,51)           118.895          estimate D2E/DX2                !
 ! A86   A(12,25,17)           117.5574         estimate D2E/DX2                !
 ! A87   A(12,25,26)           119.7288         estimate D2E/DX2                !
 ! A88   A(17,25,26)           122.6721         estimate D2E/DX2                !
 ! A89   A(9,26,25)            121.4046         estimate D2E/DX2                !
 ! A90   A(9,26,52)            118.846          estimate D2E/DX2                !
 ! A91   A(25,26,52)           119.7492         estimate D2E/DX2                !
 ! A92   A(13,27,28)           120.5837         estimate D2E/DX2                !
 ! A93   A(13,27,29)           122.6809         estimate D2E/DX2                !
 ! A94   A(28,27,29)           116.6995         estimate D2E/DX2                !
 ! A95   A(27,28,53)           111.8156         estimate D2E/DX2                !
 ! A96   A(27,28,54)           110.8053         estimate D2E/DX2                !
 ! A97   A(27,28,55)           110.1551         estimate D2E/DX2                !
 ! A98   A(53,28,54)           109.2666         estimate D2E/DX2                !
 ! A99   A(53,28,55)           107.1412         estimate D2E/DX2                !
 ! A100  A(54,28,55)           107.4963         estimate D2E/DX2                !
 ! D1    D(32,1,2,3)           -61.1582         estimate D2E/DX2                !
 ! D2    D(33,1,2,3)            61.2314         estimate D2E/DX2                !
 ! D3    D(34,1,2,3)          -179.9673         estimate D2E/DX2                !
 ! D4    D(1,2,3,4)             -0.0373         estimate D2E/DX2                !
 ! D5    D(1,2,3,8)            179.9978         estimate D2E/DX2                !
 ! D6    D(2,3,4,5)           -179.9897         estimate D2E/DX2                !
 ! D7    D(2,3,4,35)            -0.1466         estimate D2E/DX2                !
 ! D8    D(8,3,4,5)             -0.0253         estimate D2E/DX2                !
 ! D9    D(8,3,4,35)           179.8178         estimate D2E/DX2                !
 ! D10   D(2,3,8,7)           -179.9946         estimate D2E/DX2                !
 ! D11   D(2,3,8,38)            -0.1368         estimate D2E/DX2                !
 ! D12   D(4,3,8,7)              0.0384         estimate D2E/DX2                !
 ! D13   D(4,3,8,38)           179.8961         estimate D2E/DX2                !
 ! D14   D(3,4,5,6)             -0.0012         estimate D2E/DX2                !
 ! D15   D(3,4,5,36)           179.4804         estimate D2E/DX2                !
 ! D16   D(35,4,5,6)          -179.8502         estimate D2E/DX2                !
 ! D17   D(35,4,5,36)           -0.3687         estimate D2E/DX2                !
 ! D18   D(4,5,6,7)              0.0146         estimate D2E/DX2                !
 ! D19   D(4,5,6,9)            179.9682         estimate D2E/DX2                !
 ! D20   D(36,5,6,7)          -179.4609         estimate D2E/DX2                !
 ! D21   D(36,5,6,9)             0.4926         estimate D2E/DX2                !
 ! D22   D(5,6,7,8)             -0.0015         estimate D2E/DX2                !
 ! D23   D(5,6,7,37)          -179.5243         estimate D2E/DX2                !
 ! D24   D(9,6,7,8)           -179.955          estimate D2E/DX2                !
 ! D25   D(9,6,7,37)             0.5222         estimate D2E/DX2                !
 ! D26   D(5,6,9,10)            38.7822         estimate D2E/DX2                !
 ! D27   D(5,6,9,26)          -141.8999         estimate D2E/DX2                !
 ! D28   D(7,6,9,10)          -141.2657         estimate D2E/DX2                !
 ! D29   D(7,6,9,26)            38.0522         estimate D2E/DX2                !
 ! D30   D(6,7,8,3)             -0.0254         estimate D2E/DX2                !
 ! D31   D(6,7,8,38)          -179.8837         estimate D2E/DX2                !
 ! D32   D(37,7,8,3)           179.5032         estimate D2E/DX2                !
 ! D33   D(37,7,8,38)           -0.355          estimate D2E/DX2                !
 ! D34   D(6,9,10,11)         -179.9106         estimate D2E/DX2                !
 ! D35   D(6,9,10,39)            1.1694         estimate D2E/DX2                !
 ! D36   D(26,9,10,11)           0.7532         estimate D2E/DX2                !
 ! D37   D(26,9,10,39)        -178.1667         estimate D2E/DX2                !
 ! D38   D(6,9,26,25)          179.6233         estimate D2E/DX2                !
 ! D39   D(6,9,26,52)           -0.5369         estimate D2E/DX2                !
 ! D40   D(10,9,26,25)          -1.0402         estimate D2E/DX2                !
 ! D41   D(10,9,26,52)         178.7995         estimate D2E/DX2                !
 ! D42   D(9,10,11,12)           1.1914         estimate D2E/DX2                !
 ! D43   D(9,10,11,40)        -177.9985         estimate D2E/DX2                !
 ! D44   D(39,10,11,12)       -179.8766         estimate D2E/DX2                !
 ! D45   D(39,10,11,40)          0.9335         estimate D2E/DX2                !
 ! D46   D(10,11,12,13)       -179.6481         estimate D2E/DX2                !
 ! D47   D(10,11,12,25)         -2.8379         estimate D2E/DX2                !
 ! D48   D(40,11,12,13)         -0.4773         estimate D2E/DX2                !
 ! D49   D(40,11,12,25)        176.3329         estimate D2E/DX2                !
 ! D50   D(11,12,13,14)        139.3232         estimate D2E/DX2                !
 ! D51   D(11,12,13,27)        -50.6808         estimate D2E/DX2                !
 ! D52   D(25,12,13,14)        -37.4953         estimate D2E/DX2                !
 ! D53   D(25,12,13,27)        132.5007         estimate D2E/DX2                !
 ! D54   D(11,12,25,17)       -175.1753         estimate D2E/DX2                !
 ! D55   D(11,12,25,26)          2.5383         estimate D2E/DX2                !
 ! D56   D(13,12,25,17)          1.7357         estimate D2E/DX2                !
 ! D57   D(13,12,25,26)        179.4493         estimate D2E/DX2                !
 ! D58   D(12,13,14,15)       -104.403          estimate D2E/DX2                !
 ! D59   D(12,13,14,16)         21.4697         estimate D2E/DX2                !
 ! D60   D(12,13,14,30)        137.5139         estimate D2E/DX2                !
 ! D61   D(27,13,14,15)         85.1346         estimate D2E/DX2                !
 ! D62   D(27,13,14,16)       -148.9927         estimate D2E/DX2                !
 ! D63   D(27,13,14,30)        -32.9485         estimate D2E/DX2                !
 ! D64   D(12,13,27,28)         -6.6482         estimate D2E/DX2                !
 ! D65   D(12,13,27,29)        175.6023         estimate D2E/DX2                !
 ! D66   D(14,13,27,28)        163.2798         estimate D2E/DX2                !
 ! D67   D(14,13,27,29)        -14.4697         estimate D2E/DX2                !
 ! D68   D(13,14,15,41)       -178.5977         estimate D2E/DX2                !
 ! D69   D(13,14,15,42)        -58.8868         estimate D2E/DX2                !
 ! D70   D(13,14,15,43)         61.3228         estimate D2E/DX2                !
 ! D71   D(16,14,15,41)         53.9545         estimate D2E/DX2                !
 ! D72   D(16,14,15,42)        173.6653         estimate D2E/DX2                !
 ! D73   D(16,14,15,43)        -66.125          estimate D2E/DX2                !
 ! D74   D(30,14,15,41)        -60.4918         estimate D2E/DX2                !
 ! D75   D(30,14,15,42)         59.219          estimate D2E/DX2                !
 ! D76   D(30,14,15,43)        179.4287         estimate D2E/DX2                !
 ! D77   D(13,14,16,17)         26.6415         estimate D2E/DX2                !
 ! D78   D(13,14,16,44)        150.157          estimate D2E/DX2                !
 ! D79   D(13,14,16,45)        -94.1084         estimate D2E/DX2                !
 ! D80   D(15,14,16,17)        152.6536         estimate D2E/DX2                !
 ! D81   D(15,14,16,44)        -83.8309         estimate D2E/DX2                !
 ! D82   D(15,14,16,45)         31.9036         estimate D2E/DX2                !
 ! D83   D(30,14,16,17)        -91.1039         estimate D2E/DX2                !
 ! D84   D(30,14,16,44)         32.4115         estimate D2E/DX2                !
 ! D85   D(30,14,16,45)        148.1461         estimate D2E/DX2                !
 ! D86   D(14,16,17,18)        174.7557         estimate D2E/DX2                !
 ! D87   D(14,16,17,25)        -57.8013         estimate D2E/DX2                !
 ! D88   D(14,16,17,31)         57.3236         estimate D2E/DX2                !
 ! D89   D(44,16,17,18)         52.0381         estimate D2E/DX2                !
 ! D90   D(44,16,17,25)        179.4811         estimate D2E/DX2                !
 ! D91   D(44,16,17,31)        -65.394          estimate D2E/DX2                !
 ! D92   D(45,16,17,18)        -63.9118         estimate D2E/DX2                !
 ! D93   D(45,16,17,25)         63.5312         estimate D2E/DX2                !
 ! D94   D(45,16,17,31)        178.6561         estimate D2E/DX2                !
 ! D95   D(16,17,18,19)       -158.8221         estimate D2E/DX2                !
 ! D96   D(16,17,18,46)         19.6866         estimate D2E/DX2                !
 ! D97   D(25,17,18,19)         79.0631         estimate D2E/DX2                !
 ! D98   D(25,17,18,46)       -102.4281         estimate D2E/DX2                !
 ! D99   D(31,17,18,19)        -41.9755         estimate D2E/DX2                !
 ! D100  D(31,17,18,46)        136.5333         estimate D2E/DX2                !
 ! D101  D(16,17,25,12)         44.7035         estimate D2E/DX2                !
 ! D102  D(16,17,25,26)       -132.9378         estimate D2E/DX2                !
 ! D103  D(18,17,25,12)        168.7842         estimate D2E/DX2                !
 ! D104  D(18,17,25,26)         -8.857          estimate D2E/DX2                !
 ! D105  D(31,17,25,12)        -70.0025         estimate D2E/DX2                !
 ! D106  D(31,17,25,26)        112.3563         estimate D2E/DX2                !
 ! D107  D(17,18,19,20)         -1.7005         estimate D2E/DX2                !
 ! D108  D(17,18,19,24)        178.4946         estimate D2E/DX2                !
 ! D109  D(46,18,19,20)        179.8124         estimate D2E/DX2                !
 ! D110  D(46,18,19,24)          0.0075         estimate D2E/DX2                !
 ! D111  D(18,19,20,21)       -179.7896         estimate D2E/DX2                !
 ! D112  D(18,19,20,47)         -0.4811         estimate D2E/DX2                !
 ! D113  D(24,19,20,21)          0.0136         estimate D2E/DX2                !
 ! D114  D(24,19,20,47)        179.3222         estimate D2E/DX2                !
 ! D115  D(18,19,24,23)        179.8616         estimate D2E/DX2                !
 ! D116  D(18,19,24,51)         -0.1178         estimate D2E/DX2                !
 ! D117  D(20,19,24,23)          0.0485         estimate D2E/DX2                !
 ! D118  D(20,19,24,51)       -179.9308         estimate D2E/DX2                !
 ! D119  D(19,20,21,22)         -0.0535         estimate D2E/DX2                !
 ! D120  D(19,20,21,48)        179.7726         estimate D2E/DX2                !
 ! D121  D(47,20,21,22)       -179.3854         estimate D2E/DX2                !
 ! D122  D(47,20,21,48)          0.4408         estimate D2E/DX2                !
 ! D123  D(20,21,22,23)          0.0312         estimate D2E/DX2                !
 ! D124  D(20,21,22,49)        179.9772         estimate D2E/DX2                !
 ! D125  D(48,21,22,23)       -179.7948         estimate D2E/DX2                !
 ! D126  D(48,21,22,49)          0.1512         estimate D2E/DX2                !
 ! D127  D(21,22,23,24)          0.0306         estimate D2E/DX2                !
 ! D128  D(21,22,23,50)        179.9275         estimate D2E/DX2                !
 ! D129  D(49,22,23,24)       -179.9153         estimate D2E/DX2                !
 ! D130  D(49,22,23,50)         -0.0185         estimate D2E/DX2                !
 ! D131  D(22,23,24,19)         -0.071          estimate D2E/DX2                !
 ! D132  D(22,23,24,51)        179.9087         estimate D2E/DX2                !
 ! D133  D(50,23,24,19)       -179.9679         estimate D2E/DX2                !
 ! D134  D(50,23,24,51)          0.0118         estimate D2E/DX2                !
 ! D135  D(12,25,26,9)          -0.6113         estimate D2E/DX2                !
 ! D136  D(12,25,26,52)        179.5504         estimate D2E/DX2                !
 ! D137  D(17,25,26,9)         176.9806         estimate D2E/DX2                !
 ! D138  D(17,25,26,52)         -2.8577         estimate D2E/DX2                !
 ! D139  D(13,27,28,53)        -36.2398         estimate D2E/DX2                !
 ! D140  D(13,27,28,54)         85.9217         estimate D2E/DX2                !
 ! D141  D(13,27,28,55)       -155.2583         estimate D2E/DX2                !
 ! D142  D(29,27,28,53)        141.6399         estimate D2E/DX2                !
 ! D143  D(29,27,28,54)        -96.1985         estimate D2E/DX2                !
 ! D144  D(29,27,28,55)         22.6214         estimate D2E/DX2                !
 --------------------------------------------------------------------------------
 Trust Radius=3.00D-01 FncErr=1.00D-07 GrdErr=1.00D-07
 Number of steps in this run= 312 maximum allowed number of steps= 330.
 GradGradGradGradGradGradGradGradGradGradGradGradGradGradGradGradGradGrad

 Stoichiometry    C25H26N2O2
 Framework group  C1[X(C25H26N2O2)]
 Deg. of freedom   159
 Full point group                 C1
 Largest Abelian subgroup         C1      NOp   1
 Largest concise Abelian subgroup C1      NOp   1
                         Standard orientation:                         
 ---------------------------------------------------------------------
 Center     Atomic     Atomic              Coordinates (Angstroms)
 Number     Number      Type              X           Y           Z
 ---------------------------------------------------------------------
    1          6             0       -7.411572   -1.580160    0.352070
    2          8             0       -6.572101   -0.804648   -0.495502
    3          6             0       -5.208334   -0.953222   -0.366957
    4          6             0       -4.582964   -1.827104    0.554366
    5          6             0       -3.177614   -1.912760    0.614962
    6          6             0       -2.359545   -1.135678   -0.234717
    7          6             0       -2.993295   -0.265731   -1.151214
    8          6             0       -4.396416   -0.176555   -1.215222
    9          6             0       -0.887231   -1.228841   -0.166538
   10          6             0       -0.247231   -2.469991    0.037869
   11          6             0        1.155115   -2.561007    0.105042
   12          6             0        1.955225   -1.401121   -0.006543
   13          7             0        3.388625   -1.458078    0.050111
   14          6             0        4.154163   -0.597216   -0.891669
   15          6             0        4.742870   -1.427654   -2.049192
   16          6             0        3.342782    0.608662   -1.434375
   17          6             0        2.233015    1.054298   -0.473541
   18          7             0        1.578883    2.265047   -0.967379
   19          6             0        0.854341    3.132579   -0.134978
   20          6             0        0.663370    2.894487    1.247890
   21          6             0       -0.077837    3.800288    2.031797
   22          6             0       -0.634577    4.952221    1.445085
   23          6             0       -0.448491    5.195824    0.070864
   24          6             0        0.291518    4.289310   -0.712802
   25          6             0        1.330932   -0.155119   -0.247265
   26          6             0       -0.079761   -0.079497   -0.318480
   27          6             0        4.069527   -2.101985    1.044193
   28          6             0        3.324685   -2.679723    2.250825
   29          8             0        5.301382   -2.215159    1.045098
   30          1             0        4.985915   -0.153217   -0.340620
   31          1             0        2.710903    1.293578    0.478021
   32          1             0       -7.265857   -2.649288    0.189953
   33          1             0       -7.240213   -1.350283    1.404601
   34          1             0       -8.454340   -1.354549    0.133198
   35          1             0       -5.155997   -2.444279    1.231161
   36          1             0       -2.727499   -2.581805    1.333534
   37          1             0       -2.401020    0.339086   -1.822906
   38          1             0       -4.853555    0.496482   -1.927817
   39          1             0       -0.834411   -3.373329    0.128263
   40          1             0        1.604365   -3.535349    0.229964
   41          1             0        5.324153   -0.800259   -2.725293
   42          1             0        5.406724   -2.213374   -1.685298
   43          1             0        3.956282   -1.906747   -2.633311
   44          1             0        4.023363    1.434368   -1.647574
   45          1             0        2.885921    0.339923   -2.389397
   46          1             0        1.678639    2.489008   -1.952259
   47          1             0        1.066732    2.016782    1.730333
   48          1             0       -0.221209    3.608158    3.085200
   49          1             0       -1.203958    5.647187    2.047571
   50          1             0       -0.875505    6.079018   -0.384148
   51          1             0        0.421284    4.494395   -1.766421
   52          1             0       -0.556519    0.871811   -0.494810
   53          1             0        2.487969   -2.048971    2.550244
   54          1             0        2.959525   -3.682961    2.035928
   55          1             0        3.995466   -2.751529    3.107170
 ---------------------------------------------------------------------
 Rotational constants (GHZ):      0.1966963      0.0998934      0.0745865
 Standard basis: 6-31G(d) (6D, 7F)
 There are   487 symmetry adapted basis functions of A   symmetry.
 Integral buffers will be    131072 words long.
 Raffenetti 1 integral format.
 Two-electron integral symmetry is turned on.
   487 basis functions,   916 primitive gaussians,   487 cartesian basis functions
   103 alpha electrons      103 beta electrons
       nuclear repulsion energy      2610.7253860176 Hartrees.
 NAtoms=   55 NActive=   55 NUniq=   55 SFac= 7.50D-01 NAtFMM=   80 NAOKFM=F Big=F
 One-electron integrals computed using PRISM.
 NBasis=   487 RedAO= T  NBF=   487
 NBsUse=   487 1.00D-06 NBFU=   487
 Harris functional with IExCor=  205 diagonalized for initial guess.
 ExpMin= 1.61D-01 ExpMax= 5.48D+03 ExpMxC= 8.25D+02 IAcc=1 IRadAn=         1 AccDes= 1.00D-06
 HarFok:  IExCor= 205 AccDes= 1.00D-06 IRadAn=         1 IDoV=1
 ScaDFX=  1.000000  1.000000  1.000000  1.000000
 Initial guess orbital symmetries:
       Occupied  (A) (A) (A) (A) (A) (A) (A) (A) (A) (A) (A) (A)
                 (A) (A) (A) (A) (A) (A) (A) (A) (A) (A) (A) (A)
                 (A) (A) (A) (A) (A) (A) (A) (A) (A) (A) (A) (A)
                 (A) (A) (A) (A) (A) (A) (A) (A) (A) (A) (A) (A)
                 (A) (A) (A) (A) (A) (A) (A) (A) (A) (A) (A) (A)
                 (A) (A) (A) (A) (A) (A) (A) (A) (A) (A) (A) (A)
                 (A) (A) (A) (A) (A) (A) (A) (A) (A) (A) (A) (A)
                 (A) (A) (A) (A) (A) (A) (A) (A) (A) (A) (A) (A)
                 (A) (A) (A) (A) (A) (A) (A)
       Virtual   (A) (A) (A) (A) (A) (A) (A) (A) (A) (A) (A) (A)
                 (A) (A) (A) (A) (A) (A) (A) (A) (A) (A) (A) (A)
                 (A) (A) (A) (A) (A) (A) (A) (A) (A) (A) (A) (A)
                 (A) (A) (A) (A) (A) (A) (A) (A) (A) (A) (A) (A)
                 (A) (A) (A) (A) (A) (A) (A) (A) (A) (A) (A) (A)
                 (A) (A) (A) (A) (A) (A) (A) (A) (A) (A) (A) (A)
                 (A) (A) (A) (A) (A) (A) (A) (A) (A) (A) (A) (A)
                 (A) (A) (A) (A) (A) (A) (A) (A) (A) (A) (A) (A)
                 (A) (A) (A) (A) (A) (A) (A) (A) (A) (A) (A) (A)
                 (A) (A) (A) (A) (A) (A) (A) (A) (A) (A) (A) (A)
                 (A) (A) (A) (A) (A) (A) (A) (A) (A) (A) (A) (A)
                 (A) (A) (A) (A) (A) (A) (A) (A) (A) (A) (A) (A)
                 (A) (A) (A) (A) (A) (A) (A) (A) (A) (A) (A) (A)
                 (A) (A) (A) (A) (A) (A) (A) (A) (A) (A) (A) (A)
                 (A) (A) (A) (A) (A) (A) (A) (A) (A) (A) (A) (A)
                 (A) (A) (A) (A) (A) (A) (A) (A) (A) (A) (A) (A)
                 (A) (A) (A) (A) (A) (A) (A) (A) (A) (A) (A) (A)
                 (A) (A) (A) (A) (A) (A) (A) (A) (A) (A) (A) (A)
                 (A) (A) (A) (A) (A) (A) (A) (A) (A) (A) (A) (A)
                 (A) (A) (A) (A) (A) (A) (A) (A) (A) (A) (A) (A)
                 (A) (A) (A) (A) (A) (A) (A) (A) (A) (A) (A) (A)
                 (A) (A) (A) (A) (A) (A) (A) (A) (A) (A) (A) (A)
                 (A) (A) (A) (A) (A) (A) (A) (A) (A) (A) (A) (A)
                 (A) (A) (A) (A) (A) (A) (A) (A) (A) (A) (A) (A)
                 (A) (A) (A) (A) (A) (A) (A) (A) (A) (A) (A) (A)
                 (A) (A) (A) (A) (A) (A) (A) (A) (A) (A) (A) (A)
                 (A) (A) (A) (A) (A) (A) (A) (A) (A) (A) (A) (A)
                 (A) (A) (A) (A) (A) (A) (A) (A) (A) (A) (A) (A)
                 (A) (A) (A) (A) (A) (A) (A) (A) (A) (A) (A) (A)
                 (A) (A) (A) (A) (A) (A) (A) (A) (A) (A) (A) (A)
                 (A) (A) (A) (A) (A) (A) (A) (A) (A) (A) (A) (A)
                 (A) (A) (A) (A) (A) (A) (A) (A) (A) (A) (A) (A)
 The electronic state of the initial guess is 1-A.
 Requested convergence on RMS density matrix=1.00D-08 within 128 cycles.
 Requested convergence on MAX density matrix=1.00D-06.
 Requested convergence on             energy=1.00D-06.
 No special actions if energy rises.
 Integral accuracy reduced to 1.0D-05 until final iterations.
 Initial convergence to 1.0D-05 achieved.  Increase integral accuracy.
 SCF Done:  E(RHF) =  -1220.46392576     A.U. after   16 cycles
             Convg  =    0.4495D-08             -V/T =  2.0026
             S**2   =   0.0000

 **********************************************************************

            Population analysis using the SCF density.

 **********************************************************************

 Orbital symmetries:
 BldTbl:  Degeneracy threshold= 1.00D-02
       Occupied  (A) (A) (A) (A) (A) (A) (A) (A) (A) (A) (A) (A)
                 (A) (A) (A) (A) (A) (A) (A) (A) (A) (A) (A) (A)
                 (A) (A) (A) (A) (A) (A) (A) (A) (A) (A) (A) (A)
                 (A) (A) (A) (A) (A) (A) (A) (A) (A) (A) (A) (A)
                 (A) (A) (A) (A) (A) (A) (A) (A) (A) (A) (A) (A)
                 (A) (A) (A) (A) (A) (A) (A) (A) (A) (A) (A) (A)
                 (A) (A) (A) (A) (A) (A) (A) (A) (A) (A) (A) (A)
                 (A) (A) (A) (A) (A) (A) (A) (A) (A) (A) (A) (A)
                 (A) (A) (A) (A) (A) (A) (A)
       Virtual   (A) (A) (A) (A) (A) (A) (A) (A) (A) (A) (A) (A)
                 (A) (A) (A) (A) (A) (A) (A) (A) (A) (A) (A) (A)
                 (A) (A) (A) (A) (A) (A) (A) (A) (A) (A) (A) (A)
                 (A) (A) (A) (A) (A) (A) (A) (A) (A) (A) (A) (A)
                 (A) (A) (A) (A) (A) (A) (A) (A) (A) (A) (A) (A)
                 (A) (A) (A) (A) (A) (A) (A) (A) (A) (A) (A) (A)
                 (A) (A) (A) (A) (A) (A) (A) (A) (A) (A) (A) (A)
                 (A) (A) (A) (A) (A) (A) (A) (A) (A) (A) (A) (A)
                 (A) (A) (A) (A) (A) (A) (A) (A) (A) (A) (A) (A)
                 (A) (A) (A) (A) (A) (A) (A) (A) (A) (A) (A) (A)
                 (A) (A) (A) (A) (A) (A) (A) (A) (A) (A) (A) (A)
                 (A) (A) (A) (A) (A) (A) (A) (A) (A) (A) (A) (A)
                 (A) (A) (A) (A) (A) (A) (A) (A) (A) (A) (A) (A)
                 (A) (A) (A) (A) (A) (A) (A) (A) (A) (A) (A) (A)
                 (A) (A) (A) (A) (A) (A) (A) (A) (A) (A) (A) (A)
                 (A) (A) (A) (A) (A) (A) (A) (A) (A) (A) (A) (A)
                 (A) (A) (A) (A) (A) (A) (A) (A) (A) (A) (A) (A)
                 (A) (A) (A) (A) (A) (A) (A) (A) (A) (A) (A) (A)
                 (A) (A) (A) (A) (A) (A) (A) (A) (A) (A) (A) (A)
                 (A) (A) (A) (A) (A) (A) (A) (A) (A) (A) (A) (A)
                 (A) (A) (A) (A) (A) (A) (A) (A) (A) (A) (A) (A)
                 (A) (A) (A) (A) (A) (A) (A) (A) (A) (A) (A) (A)
                 (A) (A) (A) (A) (A) (A) (A) (A) (A) (A) (A) (A)
                 (A) (A) (A) (A) (A) (A) (A) (A) (A) (A) (A) (A)
                 (A) (A) (A) (A) (A) (A) (A) (A) (A) (A) (A) (A)
                 (A) (A) (A) (A) (A) (A) (A) (A) (A) (A) (A) (A)
                 (A) (A) (A) (A) (A) (A) (A) (A) (A) (A) (A) (A)
                 (A) (A) (A) (A) (A) (A) (A) (A) (A) (A) (A) (A)
                 (A) (A) (A) (A) (A) (A) (A) (A) (A) (A) (A) (A)
                 (A) (A) (A) (A) (A) (A) (A) (A) (A) (A) (A) (A)
                 (A) (A) (A) (A) (A) (A) (A) (A) (A) (A) (A) (A)
                 (A) (A) (A) (A) (A) (A) (A) (A) (A) (A) (A) (A)
 The electronic state is 1-A.
 Alpha  occ. eigenvalues --  -20.59297 -20.51897 -15.60425 -15.57616 -11.35361
 Alpha  occ. eigenvalues --  -11.30838 -11.28937 -11.28772 -11.28701 -11.28484
 Alpha  occ. eigenvalues --  -11.27993 -11.25170 -11.25079 -11.24813 -11.24643
 Alpha  occ. eigenvalues --  -11.24474 -11.24368 -11.24329 -11.24208 -11.24090
 Alpha  occ. eigenvalues --  -11.23986 -11.23892 -11.23854 -11.23473 -11.23094
 Alpha  occ. eigenvalues --  -11.22712 -11.22699 -11.22112 -11.21440  -1.40169
 Alpha  occ. eigenvalues --   -1.36813  -1.26313  -1.23916  -1.16015  -1.13287
 Alpha  occ. eigenvalues --   -1.12418  -1.08086  -1.05510  -1.02553  -1.01615
 Alpha  occ. eigenvalues --   -1.00439  -1.00074  -0.99102  -0.97959  -0.95514
 Alpha  occ. eigenvalues --   -0.93689  -0.88449  -0.85454  -0.84831  -0.83339
 Alpha  occ. eigenvalues --   -0.82422  -0.80690  -0.79881  -0.78035  -0.74990
 Alpha  occ. eigenvalues --   -0.71747  -0.71255  -0.68728  -0.68099  -0.67597
 Alpha  occ. eigenvalues --   -0.66967  -0.66151  -0.65357  -0.65176  -0.63412
 Alpha  occ. eigenvalues --   -0.62661  -0.62260  -0.61254  -0.60714  -0.59861
 Alpha  occ. eigenvalues --   -0.59088  -0.58867  -0.58439  -0.58036  -0.57753
 Alpha  occ. eigenvalues --   -0.57330  -0.56988  -0.55798  -0.55096  -0.54565
 Alpha  occ. eigenvalues --   -0.53247  -0.52480  -0.52266  -0.51743  -0.51166
 Alpha  occ. eigenvalues --   -0.50485  -0.50401  -0.49459  -0.48816  -0.48662
 Alpha  occ. eigenvalues --   -0.47851  -0.47792  -0.46914  -0.46201  -0.42051
 Alpha  occ. eigenvalues --   -0.41343  -0.40176  -0.33949  -0.33640  -0.33422
 Alpha  occ. eigenvalues --   -0.32621  -0.28175  -0.27889
 Alpha virt. eigenvalues --    0.10302   0.12747   0.13355   0.14170   0.16311
 Alpha virt. eigenvalues --    0.17427   0.20394   0.22491   0.23220   0.23664
 Alpha virt. eigenvalues --    0.23857   0.24300   0.25416   0.26284   0.27551
 Alpha virt. eigenvalues --    0.28341   0.28830   0.29421   0.30163   0.30417
 Alpha virt. eigenvalues --    0.30663   0.30875   0.30980   0.31362   0.31722
 Alpha virt. eigenvalues --    0.32207   0.32227   0.32769   0.33687   0.33787
 Alpha virt. eigenvalues --    0.34514   0.34795   0.35896   0.36317   0.36366
 Alpha virt. eigenvalues --    0.37176   0.37394   0.38386   0.39286   0.39633
 Alpha virt. eigenvalues --    0.41233   0.42066   0.43448   0.44102   0.44891
 Alpha virt. eigenvalues --    0.45705   0.46240   0.46763   0.48572   0.48757
 Alpha virt. eigenvalues --    0.49741   0.50356   0.50423   0.52954   0.53637
 Alpha virt. eigenvalues --    0.54384   0.54647   0.56098   0.56779   0.58249
 Alpha virt. eigenvalues --    0.60178   0.62394   0.66039   0.68501   0.70162
 Alpha virt. eigenvalues --    0.70466   0.70622   0.71896   0.72695   0.73089
 Alpha virt. eigenvalues --    0.73398   0.74120   0.74327   0.74432   0.75108
 Alpha virt. eigenvalues --    0.75468   0.76247   0.76895   0.77475   0.77948
 Alpha virt. eigenvalues --    0.78355   0.78900   0.79160   0.79847   0.80037
 Alpha virt. eigenvalues --    0.80949   0.81464   0.81811   0.82309   0.82368
 Alpha virt. eigenvalues --    0.82656   0.83383   0.83719   0.83994   0.84304
 Alpha virt. eigenvalues --    0.84390   0.84753   0.84868   0.86227   0.86827
 Alpha virt. eigenvalues --    0.88300   0.88678   0.89315   0.90006   0.90924
 Alpha virt. eigenvalues --    0.91091   0.91873   0.92445   0.93019   0.94223
 Alpha virt. eigenvalues --    0.95146   0.95260   0.96963   0.97456   0.99139
 Alpha virt. eigenvalues --    0.99274   1.00458   1.01639   1.03139   1.03878
 Alpha virt. eigenvalues --    1.05076   1.05904   1.07035   1.07231   1.08764
 Alpha virt. eigenvalues --    1.09533   1.10638   1.10891   1.11140   1.11497
 Alpha virt. eigenvalues --    1.11644   1.11919   1.12267   1.12361   1.12622
 Alpha virt. eigenvalues --    1.12903   1.13439   1.13887   1.14128   1.15116
 Alpha virt. eigenvalues --    1.15908   1.16115   1.16869   1.17158   1.17564
 Alpha virt. eigenvalues --    1.18033   1.18886   1.19134   1.19464   1.19581
 Alpha virt. eigenvalues --    1.19903   1.20269   1.20633   1.21116   1.21545
 Alpha virt. eigenvalues --    1.22077   1.23179   1.23570   1.24083   1.24648
 Alpha virt. eigenvalues --    1.25139   1.25622   1.26501   1.27725   1.28490
 Alpha virt. eigenvalues --    1.29266   1.29639   1.30774   1.31971   1.32365
 Alpha virt. eigenvalues --    1.33795   1.34644   1.36123   1.37299   1.38016
 Alpha virt. eigenvalues --    1.39164   1.40340   1.40840   1.41510   1.42548
 Alpha virt. eigenvalues --    1.43519   1.44082   1.44822   1.46249   1.47313
 Alpha virt. eigenvalues --    1.48748   1.49699   1.50237   1.51248   1.52864
 Alpha virt. eigenvalues --    1.55038   1.56126   1.57555   1.60489   1.61136
 Alpha virt. eigenvalues --    1.63756   1.63825   1.64425   1.65964   1.67569
 Alpha virt. eigenvalues --    1.68382   1.68907   1.70883   1.71282   1.71881
 Alpha virt. eigenvalues --    1.72777   1.73321   1.74436   1.74599   1.75534
 Alpha virt. eigenvalues --    1.76750   1.77325   1.77980   1.78643   1.78718
 Alpha virt. eigenvalues --    1.79565   1.80446   1.80711   1.81862   1.86314
 Alpha virt. eigenvalues --    1.87724   1.91037   1.94031   1.95674   1.97099
 Alpha virt. eigenvalues --    1.99353   2.00938   2.01542   2.04198   2.05117
 Alpha virt. eigenvalues --    2.06798   2.07205   2.08077   2.08625   2.09794
 Alpha virt. eigenvalues --    2.10020   2.11088   2.11586   2.11805   2.12431
 Alpha virt. eigenvalues --    2.12666   2.13524   2.14526   2.15943   2.16574
 Alpha virt. eigenvalues --    2.16993   2.17320   2.18742   2.21160   2.23183
 Alpha virt. eigenvalues --    2.24220   2.24310   2.24966   2.25609   2.25745
 Alpha virt. eigenvalues --    2.26553   2.27742   2.29247   2.30555   2.31012
 Alpha virt. eigenvalues --    2.31077   2.31747   2.32909   2.35197   2.36319
 Alpha virt. eigenvalues --    2.36665   2.37769   2.39019   2.39795   2.40464
 Alpha virt. eigenvalues --    2.41070   2.41769   2.42014   2.43192   2.43864
 Alpha virt. eigenvalues --    2.44837   2.45505   2.45802   2.46697   2.47236
 Alpha virt. eigenvalues --    2.48417   2.50164   2.51364   2.52250   2.53494
 Alpha virt. eigenvalues --    2.54701   2.55937   2.56194   2.56480   2.57767
 Alpha virt. eigenvalues --    2.58401   2.59714   2.60665   2.61507   2.62066
 Alpha virt. eigenvalues --    2.62675   2.63008   2.66055   2.66670   2.67591
 Alpha virt. eigenvalues --    2.68495   2.69641   2.69873   2.71685   2.74025
 Alpha virt. eigenvalues --    2.76137   2.78272   2.80640   2.82268   2.83159
 Alpha virt. eigenvalues --    2.83952   2.86193   2.87137   2.87868   2.89800
 Alpha virt. eigenvalues --    2.91515   2.92733   2.92959   2.94055   2.95916
 Alpha virt. eigenvalues --    2.96872   2.97565   2.98533   2.99763   3.00180
 Alpha virt. eigenvalues --    3.01658   3.03418   3.04397   3.06463   3.07630
 Alpha virt. eigenvalues --    3.08607   3.09133   3.09796   3.11866   3.12398
 Alpha virt. eigenvalues --    3.14065   3.14791   3.16462   3.17550   3.20687
 Alpha virt. eigenvalues --    3.26089   3.27249   3.28832   3.31117   3.33109
 Alpha virt. eigenvalues --    3.34134   3.38633   3.41409   3.51169   3.55819
 Alpha virt. eigenvalues --    3.56309   3.63051   3.73248   3.77047   3.82512
 Alpha virt. eigenvalues --    4.44363   4.47511   4.48285   4.51211   4.52322
 Alpha virt. eigenvalues --    4.53168   4.53604   4.54512   4.55492   4.57939
 Alpha virt. eigenvalues --    4.59882   4.61847   4.63134   4.66428   4.72551
 Alpha virt. eigenvalues --    4.73136   4.73886   4.76513   4.76849   4.80465
 Alpha virt. eigenvalues --    4.81704   4.82636   4.91084   4.94158   4.96979
 Alpha virt. eigenvalues --    5.10047   5.13673   5.17107   5.24117
          Condensed to atoms (all electrons):
 Mulliken atomic charges:
              1
     1  C   -0.185272
     2  O   -0.665307
     3  C    0.433997
     4  C   -0.283899
     5  C   -0.198860
     6  C   -0.009673
     7  C   -0.197027
     8  C   -0.250617
     9  C    0.017436
    10  C   -0.224663
    11  C   -0.209598
    12  C    0.297019
    13  N   -0.790503
    14  C    0.072985
    15  C   -0.483531
    16  C   -0.372505
    17  C    0.103944
    18  N   -0.891265
    19  C    0.396006
    20  C   -0.279314
    21  C   -0.174027
    22  C   -0.237812
    23  C   -0.175731
    24  C   -0.279042
    25  C   -0.033618
    26  C   -0.238817
    27  C    0.751514
    28  C   -0.577442
    29  O   -0.627585
    30  H    0.210289
    31  H    0.192952
    32  H    0.162796
    33  H    0.163741
    34  H    0.192824
    35  H    0.208397
    36  H    0.211491
    37  H    0.215526
    38  H    0.218588
    39  H    0.212102
    40  H    0.216472
    41  H    0.156812
    42  H    0.205947
    43  H    0.160113
    44  H    0.192053
    45  H    0.172794
    46  H    0.382321
    47  H    0.207705
    48  H    0.204682
    49  H    0.192957
    50  H    0.202449
    51  H    0.190387
    52  H    0.244162
    53  H    0.189513
    54  H    0.190266
    55  H    0.215869
 Sum of Mulliken charges=   0.00000
 Atomic charges with hydrogens summed into heavy atoms:
              1
     1  C    0.334089
     2  O   -0.665307
     3  C    0.433997
     4  C   -0.075501
     5  C    0.012631
     6  C   -0.009673
     7  C    0.018499
     8  C   -0.032028
     9  C    0.017436
    10  C   -0.012561
    11  C    0.006874
    12  C    0.297019
    13  N   -0.790503
    14  C    0.283274
    15  C    0.039340
    16  C   -0.007658
    17  C    0.296896
    18  N   -0.508944
    19  C    0.396006
    20  C   -0.071610
    21  C    0.030655
    22  C   -0.044855
    23  C    0.026717
    24  C   -0.088655
    25  C   -0.033618
    26  C    0.005346
    27  C    0.751514
    28  C    0.018206
    29  O   -0.627585
    30  H    0.000000
    31  H    0.000000
    32  H    0.000000
    33  H    0.000000
    34  H    0.000000
    35  H    0.000000
    36  H    0.000000
    37  H    0.000000
    38  H    0.000000
    39  H    0.000000
    40  H    0.000000
    41  H    0.000000
    42  H    0.000000
    43  H    0.000000
    44  H    0.000000
    45  H    0.000000
    46  H    0.000000
    47  H    0.000000
    48  H    0.000000
    49  H    0.000000
    50  H    0.000000
    51  H    0.000000
    52  H    0.000000
    53  H    0.000000
    54  H    0.000000
    55  H    0.000000
 Sum of Mulliken charges=   0.00000
 Entering OneElI...
 OneElI was handed  5925890 working-precision words.
 Multipole integrals L=0 to 4 MinM= 0 MaxM= 0.
 Requested accuracy = 0.1000D-12
 PrsmSu:  NPrtUS=   1 ThrOK=F
 PRISM was handed     5134079 working-precision words and  9072 shell-pairs
 Electronic moments (au):
  -206.00000000    -1.44165635    -0.07528899    -0.16619930
 -9137.95650047 -4301.83898497 -1030.00498668    13.03750451
   -12.65169599    -7.41012307 29740.71596526-16853.29720322
  -531.67722195 -1866.32251946 20774.01513831  1867.23337462
 -2631.12113667  -361.05593349 -4150.79528481  1548.39642486
******************************-15795.78950628-55385.53637653
  2400.50791049 19254.80199395-14612.79618199   767.12662491
 -1946.93434093-88475.42169226-43987.50816204-26035.53266943
 15293.23432488 -1900.92175892  9727.93385748
 Electronic spatial extent (au):  <R**2>= 14469.8005
 Nuclear    moments (au):
   206.00000000     0.00000000     0.00000000     0.00000000
  8999.89257300  4178.74075404   908.66379484     0.00000000
     0.00000000     0.00000000-30182.11256884 16812.06902490
   542.11072796  1773.66109881-20763.20798594 -1861.73867777
  2645.03631176   386.03399570  4149.55537984 -1521.16084843
948964.78551154224369.88412689 12270.29933249 58189.95689940
 -4247.92102067-19643.64148016 14236.24592852  -714.23745060
  1817.78910611 80275.57506443 38022.19752145 22961.81274717
-15468.57104112  1656.04556295 -9792.10010888
 Total      moments (au):
     0.00000000    -1.44165635    -0.07528899    -0.16619930
  -138.06392748  -123.09823093  -121.34119184    13.03750451
   -12.65169599    -7.41012307  -441.39660358   -41.22817832
    10.43350602   -92.66142065    10.80715237     5.49469685
    13.91517509    24.97806221    -1.23990497    27.23557643
-32160.82321835-15322.97584059 -3525.49017378  2804.42052287
 -1847.41311018  -388.83948622  -376.55025347    52.88917431
  -129.14523481 -8199.84662783 -5965.31064059 -3073.71992227
  -175.33671625  -244.87619596   -64.16625140
 Charge=     0.0000 electrons
 Dipole moment (field-independent basis, Debye):
    X=    -3.6643    Y=    -0.1914    Z=    -0.4224  Tot=     3.6936
 Quadrupole moment (field-independent basis, Debye-Ang):
   XX=  -185.7007   YY=  -165.5713   ZZ=  -163.2080
   XY=    17.5359   XZ=   -17.0170   YZ=    -9.9669
 Traceless Quadrupole moment (field-independent basis, Debye-Ang):
   XX=   -14.2073   YY=     5.9220   ZZ=     8.2853
   XY=    17.5359   XZ=   -17.0170   YZ=    -9.9669
 Octapole moment (field-independent basis, Debye-Ang**2):
  XXX=  -314.1691  YYY=   -29.3446  ZZZ=     7.4262  XYY=   -65.9528
  XXY=     7.6921  XXZ=     3.9109  XZZ=     9.9043  YZZ=    17.7784
  YYZ=    -0.8825  XYZ=    19.3852
 Hexadecapole moment (field-independent basis, Debye-Ang**3):
 XXXX=-12113.3072 YYYY= -5771.3670 ZZZZ= -1327.8685 XXXY=  1056.2792
 XXXZ=  -695.8243 YYYX=  -146.4556 YYYZ=  -141.8269 ZZZX=    19.9206
 ZZZY=   -48.6423 XXYY= -3088.4552 XXZZ= -2246.8218 YYZZ= -1157.7102
 XXYZ=   -66.0402 YYXZ=   -92.2321 ZZXY=   -24.1681
 N-N= 2.610725386018D+03 E-N=-8.068806354701D+03  KE= 1.217273116874D+03
 Entering OneElI...
 OneElI was handed  5449690 working-precision words.
 Calculate electrostatic properties
    NBasis =   487  MinDer = 0  MaxDer = 0
    NGrid  =    55  NMatD  =   1
 Requested accuracy = 0.1000D-12
 PrsmSu:  NPrtUS=   1 ThrOK=F
 PRISM was handed     4731987 working-precision words and  7915 shell-pairs
 --------------------------------------------------------
       Center         ----      EFG at Nuclei      ----
                      3XX-RR        3YY-RR        3ZZ-RR
 --------------------------------------------------------
     1   Atom       -0.018270      0.025262     -0.006992
     2   Atom       -1.637410      0.889347      0.748063
     3   Atom       -0.137992      0.048730      0.089262
     4   Atom        0.138235     -0.079716     -0.058520
     5   Atom        0.182739     -0.115988     -0.066751
     6   Atom        0.092615     -0.058332     -0.034284
     7   Atom        0.185753     -0.117011     -0.068742
     8   Atom        0.151603     -0.088409     -0.063194
     9   Atom        0.131920      0.180808     -0.312728
    10   Atom        0.160769      0.139329     -0.300098
    11   Atom        0.179835      0.100094     -0.279929
    12   Atom       -0.112744      0.269181     -0.156437
    13   Atom       -0.545743      0.463326      0.082417
    14   Atom        0.045667     -0.040545     -0.005122
    15   Atom        0.022170      0.005661     -0.027832
    16   Atom       -0.003163      0.009548     -0.006386
    17   Atom        0.018851     -0.128782      0.109931
    18   Atom        0.723647     -0.162448     -0.561199
    19   Atom       -0.226834      0.028591      0.198243
    20   Atom       -0.096822      0.041266      0.055556
    21   Atom       -0.202959      0.065214      0.137745
    22   Atom       -0.134831      0.025275      0.109556
    23   Atom       -0.210958      0.020821      0.190137
    24   Atom       -0.088099      0.030679      0.057419
    25   Atom        0.172321      0.103373     -0.275694
    26   Atom        0.149406      0.162948     -0.312354
    27   Atom        0.328022     -0.348803      0.020781
    28   Atom        0.059293      0.003764     -0.063056
    29   Atom       -0.962012     -0.283278      1.245290
    30   Atom       -0.101019      0.073288      0.027731
    31   Atom        0.064038      0.120910     -0.184948
    32   Atom        0.136155     -0.276722      0.140567
    33   Atom        0.132952      0.131700     -0.264652
    34   Atom       -0.261188      0.130772      0.130416
    35   Atom        0.010408      0.011288     -0.021697
    36   Atom        0.067006     -0.018661     -0.048345
    37   Atom        0.007526      0.014943     -0.022469
    38   Atom        0.064630     -0.020231     -0.044399
    39   Atom        0.009806     -0.177201      0.167395
    40   Atom        0.064477     -0.229539      0.165062
    41   Atom        0.028193     -0.005450     -0.022743
    42   Atom       -0.015623     -0.083500      0.099123
    43   Atom       -0.090628      0.068519      0.022110
    44   Atom       -0.030377     -0.107296      0.137674
    45   Atom        0.067813      0.120743     -0.188556
    46   Atom        0.207694      0.146509     -0.354202
    47   Atom        0.101642     -0.155182      0.053540
    48   Atom        0.155545      0.140090     -0.295636
    49   Atom        0.036684     -0.039163      0.002479
    50   Atom        0.090219     -0.157106      0.066886
    51   Atom        0.160982      0.136335     -0.297317
    52   Atom        0.054699     -0.211612      0.156913
    53   Atom       -0.114906      0.001214      0.113692
    54   Atom        0.105902     -0.233812      0.127909
    55   Atom       -0.023263      0.150386     -0.127123
 --------------------------------------------------------
                        XY            XZ            YZ
 --------------------------------------------------------
     1   Atom       -0.200429      0.219061      0.183322
     2   Atom       -0.454117      0.559694      0.882697
     3   Atom        0.041266     -0.045845     -0.318835
     4   Atom       -0.005140     -0.006431     -0.153360
     5   Atom        0.007041     -0.017310     -0.247176
     6   Atom       -0.000949     -0.007444     -0.207395
     7   Atom       -0.018769      0.005271     -0.255165
     8   Atom       -0.010852      0.007402     -0.176395
     9   Atom        0.008425      0.014283     -0.076757
    10   Atom       -0.016131      0.022090     -0.056974
    11   Atom       -0.003979     -0.005600     -0.071285
    12   Atom        0.028371      0.014777     -0.091574
    13   Atom       -0.049452     -0.047197      0.745356
    14   Atom       -0.107965      0.177633      0.194530
    15   Atom       -0.010805      0.033090     -0.046232
    16   Atom        0.037007      0.023139      0.020746
    17   Atom        0.112023     -0.036271      0.112502
    18   Atom        0.842781      0.324862      0.192827
    19   Atom       -0.173498     -0.010234     -0.199141
    20   Atom       -0.126445     -0.057867     -0.006557
    21   Atom       -0.254620     -0.089812     -0.060651
    22   Atom       -0.147663     -0.051675     -0.053490
    23   Atom       -0.230964     -0.109497     -0.046647
    24   Atom       -0.129905     -0.057189     -0.000452
    25   Atom       -0.003268      0.032149     -0.110402
    26   Atom        0.000553      0.011961     -0.074214
    27   Atom       -0.023686     -0.121843     -0.326126
    28   Atom       -0.018874      0.057556      0.031434
    29   Atom        0.146234     -0.185523     -1.031175
    30   Atom       -0.139446     -0.160164     -0.084324
    31   Atom       -0.035498     -0.168050     -0.083483
    32   Atom        0.056366      0.018584     -0.060753
    33   Atom       -0.024092     -0.064813     -0.086400
    34   Atom        0.087213     -0.084273      0.029105
    35   Atom       -0.140489      0.154881      0.181080
    36   Atom        0.121478     -0.127728      0.203824
    37   Atom       -0.142946      0.157371      0.172710
    38   Atom        0.121618     -0.128192      0.203234
    39   Atom       -0.209561      0.021426      0.035085
    40   Atom        0.175554     -0.027247      0.051435
    41   Atom       -0.141018      0.154279      0.161029
    42   Atom        0.198107     -0.087948      0.105615
    43   Atom       -0.142525     -0.174671     -0.110206
    44   Atom       -0.209045      0.053342      0.065726
    45   Atom       -0.040041     -0.163442     -0.096658
    46   Atom        0.029084      0.066989      0.125695
    47   Atom        0.157911     -0.070492      0.170068
    48   Atom       -0.002737      0.063646      0.084038
    49   Atom        0.169621      0.141358     -0.163574
    50   Atom        0.158621     -0.074520      0.162971
    51   Atom        0.004832      0.062265      0.086539
    52   Atom        0.179461     -0.038137      0.069628
    53   Atom        0.202376      0.098864     -0.065497
    54   Atom       -0.147660     -0.029539     -0.084222
    55   Atom        0.015085     -0.217923      0.025367
 --------------------------------------------------------


 ---------------------------------------------------------------------------------
              Nuclear Quadrupole in Principal Axis System
 ---------------------------------------------------------------------------------

       Atom             a.u.   MegaHertz   Gauss  10(-4) cm-1        Axes

              Baa    -0.4037   -54.166   -19.328   -18.068  0.6103  0.5349 -0.5843
     1 C(13)  Bbb     0.1932    25.921     9.249     8.646 -0.0054  0.7404  0.6722
              Bcc     0.2105    28.246    10.079     9.422  0.7921 -0.4071  0.4548
 
              Baa    -1.9175   138.752    49.510    46.283  0.9320  0.2370 -0.2742
     2 O(17)  Bbb     0.2126   -15.385    -5.490    -5.132  0.3621 -0.6404  0.6773
              Bcc     1.7049  -123.367   -44.020   -41.151  0.0151  0.7305  0.6827
 
              Baa    -0.2505   -33.614   -11.994   -11.213  0.0120  0.7283  0.6851
     3 C(13)  Bbb    -0.1451   -19.472    -6.948    -6.495  0.9933 -0.0874  0.0754
              Bcc     0.3956    53.086    18.942    17.708 -0.1148 -0.6796  0.7245
 
              Baa    -0.2230   -29.928   -10.679    -9.983  0.0225  0.7308  0.6822
     4 C(13)  Bbb     0.0846    11.350     4.050     3.786  0.0222 -0.6826  0.7305
              Bcc     0.1384    18.578     6.629     6.197  0.9995 -0.0013 -0.0316
 
              Baa    -0.3398   -45.604   -16.273   -15.212  0.0123  0.7410  0.6714
     5 C(13)  Bbb     0.1481    19.879     7.093     6.631  0.4517 -0.6032  0.6574
              Bcc     0.1917    25.725     9.179     8.581  0.8921  0.2952 -0.3421
 
              Baa    -0.2541   -34.104   -12.169   -11.376  0.0167  0.7270  0.6864
     6 C(13)  Bbb     0.0924    12.397     4.424     4.135  0.9975 -0.0594  0.0386
              Bcc     0.1618    21.707     7.746     7.241 -0.0688 -0.6840  0.7262
 
              Baa    -0.3494   -46.883   -16.729   -15.639  0.0193  0.7399  0.6724
     7 C(13)  Bbb     0.1547    20.758     7.407     6.924 -0.4673 -0.5879  0.6603
              Bcc     0.1947    26.125     9.322     8.715  0.8839 -0.3270  0.3344
 
              Baa    -0.2527   -33.906   -12.098   -11.310  0.0072  0.7320  0.6812
     8 C(13)  Bbb     0.0980    13.148     4.692     4.386 -0.2323 -0.6614  0.7132
              Bcc     0.1547    20.757     7.407     6.924  0.9726 -0.1634  0.1653
 
              Baa    -0.3249   -43.600   -15.557   -14.543 -0.0337  0.1505  0.9880
     9 C(13)  Bbb     0.1318    17.687     6.311     5.900  0.9943 -0.0952  0.0484
              Bcc     0.1931    25.912     9.246     8.643  0.1013  0.9840 -0.1465
 
              Baa    -0.3082   -41.359   -14.758   -13.796 -0.0424  0.1247  0.9913
    10 C(13)  Bbb     0.1339    17.965     6.410     5.993  0.5602  0.8245 -0.0797
              Bcc     0.1743    23.393     8.347     7.803  0.8273 -0.5519  0.1048
 
              Baa    -0.2929   -39.310   -14.027   -13.112  0.0132  0.1786  0.9838
    11 C(13)  Bbb     0.1129    15.150     5.406     5.053  0.0434  0.9829 -0.1790
              Bcc     0.1800    24.160     8.621     8.059  0.9990 -0.0451 -0.0052
 
              Baa    -0.1814   -24.337    -8.684    -8.118 -0.2874  0.2081  0.9349
    12 C(13)  Bbb    -0.1082   -14.522    -5.182    -4.844  0.9558 -0.0005  0.2939
              Bcc     0.2896    38.859    13.866    12.962  0.0617  0.9781 -0.1988
 
              Baa    -0.5496   -21.195    -7.563    -7.070  0.9907 -0.0460  0.1282
    13 N(14)  Bbb    -0.4955   -19.111    -6.819    -6.375 -0.1294 -0.6127  0.7796
              Bcc     1.0451    40.306    14.382    13.445 -0.0427  0.7890  0.6130
 
              Baa    -0.3270   -43.876   -15.656   -14.636 -0.4780 -0.6096  0.6323
    14 C(13)  Bbb     0.1111    14.905     5.319     4.972 -0.6637  0.7223  0.1946
              Bcc     0.2159    28.971    10.338     9.664  0.5753  0.3266  0.7499
 
              Baa    -0.0657    -8.814    -3.145    -2.940 -0.2509  0.4994  0.8293
    15 C(13)  Bbb     0.0052     0.702     0.250     0.234  0.7412  0.6501 -0.1672
              Bcc     0.0605     8.112     2.895     2.706  0.6226 -0.5727  0.5333
 
              Baa    -0.0355    -4.761    -1.699    -1.588  0.8014 -0.5435 -0.2498
    16 C(13)  Bbb    -0.0205    -2.751    -0.982    -0.918 -0.0734 -0.5038  0.8607
              Bcc     0.0560     7.512     2.680     2.506  0.5937  0.6714  0.4436
 
              Baa    -0.2292   -30.750   -10.972   -10.257 -0.4284  0.8429 -0.3255
    17 C(13)  Bbb     0.0739     9.922     3.540     3.310  0.9000  0.3659 -0.2368
              Bcc     0.1552    20.828     7.432     6.947  0.0805  0.3944  0.9154
 
              Baa    -0.6718   -25.909    -9.245    -8.642 -0.5291  0.8446  0.0816
    18 N(14)  Bbb    -0.6373   -24.578    -8.770    -8.198 -0.1259 -0.1732  0.9768
              Bcc     1.3090    50.487    18.015    16.841  0.8392  0.5066  0.1980
 
              Baa    -0.3355   -45.023   -16.065   -15.018  0.8346  0.5106  0.2065
    19 C(13)  Bbb    -0.0089    -1.199    -0.428    -0.400 -0.5256  0.6262  0.5759
              Bcc     0.3445    46.222    16.493    15.418  0.1648 -0.5892  0.7910
 
              Baa    -0.1837   -24.655    -8.797    -8.224  0.8480  0.4829  0.2183
    20 C(13)  Bbb     0.0580     7.787     2.779     2.598  0.0095 -0.4257  0.9048
              Bcc     0.1257    16.867     6.019     5.626 -0.5299  0.7652  0.3656
 
              Baa    -0.3793   -50.898   -18.162   -16.978  0.8370  0.5074  0.2049
    21 C(13)  Bbb     0.1599    21.458     7.657     7.158 -0.2219 -0.0275  0.9747
              Bcc     0.2194    29.440    10.505     9.820 -0.5002  0.8613 -0.0896
 
              Baa    -0.2376   -31.887   -11.378   -10.636  0.8355  0.5106  0.2030
    22 C(13)  Bbb     0.0989    13.271     4.735     4.427 -0.5215  0.6205  0.5856
              Bcc     0.1387    18.616     6.643     6.210  0.1730 -0.5952  0.7847
 
              Baa    -0.3779   -50.708   -18.094   -16.914  0.8368  0.5085  0.2031
    23 C(13)  Bbb     0.1580    21.201     7.565     7.072 -0.4456  0.8479 -0.2872
              Bcc     0.2199    29.508    10.529     9.843 -0.3182  0.1499  0.9361
 
              Baa    -0.1815   -24.351    -8.689    -8.123  0.8352  0.5119  0.2009
    24 C(13)  Bbb     0.0527     7.069     2.523     2.358  0.0766 -0.4701  0.8793
              Bcc     0.1288    17.282     6.167     5.765 -0.5445  0.7190  0.4318
 
              Baa    -0.3074   -41.251   -14.719   -13.760 -0.0628  0.2586  0.9639
    25 C(13)  Bbb     0.1302    17.468     6.233     5.827  0.2523  0.9386 -0.2353
              Bcc     0.1772    23.783     8.486     7.933  0.9656 -0.2284  0.1242
 
              Baa    -0.3240   -43.474   -15.513   -14.501 -0.0251  0.1507  0.9883
    26 C(13)  Bbb     0.1496    20.080     7.165     6.698  0.9984  0.0542  0.0171
              Bcc     0.1743    23.394     8.347     7.803 -0.0509  0.9871 -0.1518
 
              Baa    -0.5466   -73.349   -26.173   -24.467  0.0944  0.8542  0.5113
    27 C(13)  Bbb     0.1614    21.655     7.727     7.223  0.4674 -0.4914  0.7348
              Bcc     0.3852    51.694    18.446    17.243  0.8790  0.1696 -0.4457
 
              Baa    -0.0987   -13.241    -4.725    -4.417 -0.3577 -0.3335  0.8723
    28 C(13)  Bbb     0.0161     2.156     0.769     0.719 -0.0441  0.9390  0.3410
              Bcc     0.0826    11.086     3.956     3.698  0.9328 -0.0835  0.3505
 
              Baa    -0.9931    71.861    25.642    23.970  0.9675 -0.2504 -0.0352
    29 O(17)  Bbb    -0.7909    57.232    20.422    19.090  0.2385  0.8575  0.4560
              Bcc     1.7841  -129.093   -46.064   -43.061 -0.0840 -0.4495  0.8893
 
              Baa    -0.2835  -151.278   -53.980   -50.461  0.7583  0.4151  0.5027
    30 H(1)   Bbb     0.1323    70.603    25.193    23.551 -0.3452 -0.3984  0.8498
              Bcc     0.1512    80.675    28.787    26.910 -0.5530  0.8179  0.1588
 
              Baa    -0.2896  -154.498   -55.129   -51.535  0.4367  0.2154  0.8734
    31 H(1)   Bbb     0.1379    73.556    26.246    24.536 -0.5031  0.8633  0.0387
              Bcc     0.1517    80.942    28.882    26.999  0.7457  0.4563 -0.4854
 
              Baa    -0.2933  -156.512   -55.847   -52.207 -0.1349  0.9805  0.1431
    32 H(1)   Bbb     0.1360    72.570    25.895    24.207  0.7802  0.1941 -0.5947
              Bcc     0.1573    83.942    29.953    28.000  0.6108 -0.0314  0.7911
 
              Baa    -0.2936  -156.667   -55.903   -52.259  0.1583  0.2052  0.9658
    33 H(1)   Bbb     0.1362    72.662    25.928    24.238  0.7875  0.5638 -0.2489
              Bcc     0.1574    84.005    29.975    28.021 -0.5956  0.8000 -0.0723
 
              Baa    -0.2980  -159.000   -56.735   -53.037  0.9569 -0.2084  0.2024
    34 H(1)   Bbb     0.1383    73.773    26.324    24.608 -0.2901 -0.6507  0.7017
              Bcc     0.1597    85.227    30.411    28.429  0.0145  0.7302  0.6831
 
              Baa    -0.3196  -170.497   -60.838   -56.872 -0.5353 -0.5690  0.6243
    35 H(1)   Bbb     0.1429    76.252    27.209    25.435  0.8445 -0.3736  0.3837
              Bcc     0.1766    94.244    33.629    31.437  0.0149  0.7326  0.6805
 
              Baa    -0.3185  -169.918   -60.631   -56.678  0.4159 -0.6205  0.6649
    36 H(1)   Bbb     0.1475    78.679    28.075    26.244  0.9067  0.2260 -0.3561
              Bcc     0.1710    91.239    32.556    30.434  0.0707  0.7509  0.6566
 
              Baa    -0.3168  -169.046   -60.320   -56.388 -0.5482 -0.5597  0.6215
    37 H(1)   Bbb     0.1468    78.338    27.953    26.131  0.8354 -0.3318  0.4381
              Bcc     0.1700    90.707    32.367    30.257 -0.0390  0.7594  0.6495
 
              Baa    -0.3176  -169.455   -60.466   -56.524  0.4196 -0.6229  0.6603
    38 H(1)   Bbb     0.1463    78.062    27.855    26.039  0.9075  0.2719 -0.3202
              Bcc     0.1713    91.392    32.611    30.485  0.0199  0.7335  0.6793
 
              Baa    -0.3167  -168.955   -60.288   -56.357  0.5422  0.8360 -0.0846
    39 H(1)   Bbb     0.1457    77.753    27.744    25.936  0.8402 -0.5404  0.0443
              Bcc     0.1709    91.202    32.543    30.422  0.0087  0.0951  0.9954
 
              Baa    -0.3185  -169.935   -60.637   -56.684 -0.4207  0.8993 -0.1194
    40 H(1)   Bbb     0.1461    77.963    27.819    26.006  0.8945  0.4332  0.1105
              Bcc     0.1724    91.972    32.818    30.679 -0.1511  0.0603  0.9867
 
              Baa    -0.3060  -163.288   -58.265   -54.467 -0.5302 -0.5800  0.6184
    41 H(1)   Bbb     0.1464    78.088    27.864    26.047 -0.2078  0.7960  0.5684
              Bcc     0.1597    85.200    30.401    28.420  0.8220 -0.1728  0.5426
 
              Baa    -0.2981  -159.055   -56.755   -53.055 -0.6087  0.7229 -0.3270
    42 H(1)   Bbb     0.1465    78.188    27.899    26.081 -0.3321  0.1421  0.9325
              Bcc     0.1516    80.867    28.855    26.974  0.7205  0.6762  0.1535
 
              Baa    -0.3047  -162.578   -58.012   -54.230  0.7251  0.4346  0.5341
    43 H(1)   Bbb     0.1468    78.302    27.940    26.119  0.6881 -0.4268 -0.5869
              Bcc     0.1580    84.276    30.072    28.112 -0.0271  0.7931 -0.6085
 
              Baa    -0.2978  -158.913   -56.704   -53.008  0.6278  0.7546 -0.1908
    44 H(1)   Bbb     0.1436    76.624    27.341    25.559  0.7770 -0.6218  0.0977
              Bcc     0.1542    82.289    29.363    27.449  0.0449  0.2096  0.9768
 
              Baa    -0.2944  -157.059   -56.043   -52.389  0.4212  0.2440  0.8735
    45 H(1)   Bbb     0.1411    75.276    26.860    25.109  0.7047 -0.6943 -0.1458
              Bcc     0.1533    81.783    29.182    27.280  0.5709  0.6770 -0.4644
 
              Baa    -0.3897  -207.947   -74.201   -69.364 -0.0980 -0.2221  0.9701
    46 H(1)   Bbb     0.1475    78.725    28.091    26.260 -0.5481  0.8257  0.1337
              Bcc     0.2422   129.222    46.110    43.104  0.8306  0.5186  0.2026
 
              Baa    -0.3207  -171.098   -61.052   -57.072 -0.3780  0.8140 -0.4411
    47 H(1)   Bbb     0.1418    75.681    27.005    25.244 -0.3969  0.2880  0.8715
              Bcc     0.1788    95.418    34.047    31.828  0.8364  0.5045  0.2142
 
              Baa    -0.3197  -170.554   -60.858   -56.891 -0.1316 -0.1790  0.9750
    48 H(1)   Bbb     0.1501    80.060    28.568    26.705 -0.5344  0.8412  0.0823
              Bcc     0.1696    90.493    32.290    30.185  0.8349  0.5102  0.2064
 
              Baa    -0.3199  -170.679   -60.902   -56.932 -0.5264  0.6425  0.5568
    49 H(1)   Bbb     0.1456    77.697    27.724    25.917  0.1513 -0.5737  0.8050
              Bcc     0.1743    92.981    33.178    31.015  0.8367  0.5080  0.2047
 
              Baa    -0.3180  -169.653   -60.536   -56.590 -0.3943  0.8164 -0.4220
    50 H(1)   Bbb     0.1493    79.683    28.433    26.580 -0.3784  0.2743  0.8841
              Bcc     0.1686    89.970    32.103    30.011  0.8375  0.5083  0.2007
 
              Baa    -0.3215  -171.525   -61.205   -57.215 -0.1240 -0.1830  0.9753
    51 H(1)   Bbb     0.1426    76.097    27.153    25.383 -0.5300  0.8431  0.0908
              Bcc     0.1789    95.429    34.051    31.832  0.8389  0.5056  0.2016
 
              Baa    -0.3153  -168.205   -60.020   -56.107 -0.4442  0.8805 -0.1657
    52 H(1)   Bbb     0.1447    77.214    27.552    25.756  0.8799  0.4636  0.1047
              Bcc     0.1705    90.990    32.468    30.351 -0.1690  0.0993  0.9806
 
              Baa    -0.3012  -160.691   -57.338   -53.601  0.7706 -0.5752 -0.2744
    53 H(1)   Bbb     0.1430    76.303    27.227    25.452 -0.1405 -0.5734  0.8071
              Bcc     0.1582    84.388    30.112    28.149  0.6216  0.5834  0.5227
 
              Baa    -0.3073  -163.969   -58.508   -54.694  0.3423  0.9179  0.2009
    54 H(1)   Bbb     0.1460    77.895    27.795    25.983 -0.1800 -0.1457  0.9728
              Bcc     0.1613    86.075    30.714    28.711  0.9222 -0.3692  0.1153
 
              Baa    -0.3011  -160.660   -57.328   -53.591  0.6180 -0.0647  0.7835
    55 H(1)   Bbb     0.1463    78.067    27.856    26.040  0.6803  0.5435 -0.4917
              Bcc     0.1548    82.593    29.471    27.550 -0.3940  0.8369  0.3799
 

 ---------------------------------------------------------------------------------

 No NMR shielding tensors so no spin-rotation constants.
 Leave Link  601 at Wed Sep 23 16:19:28 2015, MaxMem=    6291456 cpu:       1.2
 Merz-Kollman atomic radii used.
 Atom Element Radius
    1     6    1.50
    2     8    1.40
    3     6    1.50
    4     6    1.50
    5     6    1.50
    6     6    1.50
    7     6    1.50
    8     6    1.50
    9     6    1.50
   10     6    1.50
   11     6    1.50
   12     6    1.50
   13     7    1.50
   14     6    1.50
   15     6    1.50
   16     6    1.50
   17     6    1.50
   18     7    1.50
   19     6    1.50
   20     6    1.50
   21     6    1.50
[...]
 **** Fit       0.003282
 **** Fit       0.002534
 **** Fit       0.000516
 **** Fit       0.000395
 **** Fit       0.000733
 **** Fit       0.001472
 **** Fit       0.002438
 **** Fit       0.003352
 **** Fit       0.003931
 **** Fit       0.004056
 **** Fit       0.003827
 **** Fit       0.003456
 **** Fit       0.003126
 **** Fit       0.002946
 **** Fit       0.002959
 **** Fit       0.003171
 **** Fit       0.003555
 **** Fit       0.004038
 **** Fit       0.004485
 **** Fit       0.004712
 **** Fit       0.004547
 **** Fit       0.003935
 **** Fit       0.002993
 **** Fit       0.001957
 **** Fit       0.001071
 **** Fit      -0.001431
 **** Fit      -0.001634
 **** Fit      -0.001336
 **** Fit      -0.000538
 **** Fit       0.000673
 **** Fit       0.002079
 **** Fit       0.003320
 **** Fit       0.004036
 **** Fit       0.004086
 **** Fit       0.003631
 **** Fit       0.002966
 **** Fit       0.002336
 **** Fit       0.001871
 **** Fit       0.001624
 **** Fit       0.001605
 **** Fit       0.001816
 **** Fit       0.002247
 **** Fit       0.002869
 **** Fit       0.003605
 **** Fit       0.004304
 **** Fit       0.004747
 **** Fit       0.004708
 **** Fit       0.004083
 **** Fit       0.002968
 **** Fit       0.001613
 **** Fit       0.000297
 **** Fit      -0.000762
 **** Fit       0.003680
 **** Fit       0.002573
 **** Fit       0.001534
 **** Fit       0.000719
 **** Fit       0.000168
 **** Fit      -0.000124
 **** Fit      -0.000172
 **** Fit       0.000018
 **** Fit       0.000453
 **** Fit       0.001139
 **** Fit       0.002055
 **** Fit       0.003124
 **** Fit       0.004177
 **** Fit       0.004941
 **** Fit       0.005109
 **** Fit       0.004505
 **** Fit       0.003209
 **** Fit       0.001507
 **** Fit      -0.000262
 **** Fit      -0.000311
 **** Fit      -0.001335
 **** Fit      -0.001986
 **** Fit      -0.002329
 **** Fit      -0.002402
 **** Fit      -0.002217
 **** Fit      -0.001751
 **** Fit      -0.000968
 **** Fit       0.000162
 **** Fit       0.001623
 **** Fit       0.003298
 **** Fit       0.003576
 **** Fit       0.002670
 **** Fit       0.003010
 **** Fit       0.003531
 **** Fit       0.003880
 **** Fit       0.001210
 **** Fit       0.001755
 **** Fit       0.002644
 **** Fit       0.003310
 **** Fit       0.003547
 **** Fit       0.003492
 **** Fit       0.003582
 **** Fit       0.000156
 **** Fit       0.001313
 **** Fit       0.002389
 **** Fit       0.003171
 **** Fit       0.003565
 **** Fit       0.003572
 **** Fit       0.003288
 **** Fit       0.002904
 **** Fit       0.002728
 **** Fit      -0.001693
 **** Fit      -0.000201
 **** Fit       0.001203
 **** Fit       0.002362
 **** Fit       0.003185
 **** Fit       0.003632
 **** Fit       0.003706
 **** Fit       0.003443
 **** Fit       0.002915
 **** Fit       0.002244
 **** Fit       0.001615
 **** Fit       0.001309
 **** Fit      -0.001828
 **** Fit      -0.000085
 **** Fit       0.001395
 **** Fit       0.002546
 **** Fit       0.003333
 **** Fit       0.003745
 **** Fit       0.003790
 **** Fit       0.003495
 **** Fit       0.002901
 **** Fit       0.002071
 **** Fit       0.001098
 **** Fit       0.000118
 **** Fit      -0.000661
 **** Fit      -0.003630
 **** Fit      -0.001564
 **** Fit       0.000209
 **** Fit       0.001648
 **** Fit       0.002733
 **** Fit       0.003454
 **** Fit       0.003817
 **** Fit       0.003834
 **** Fit       0.003523
 **** Fit       0.002910
 **** Fit       0.002030
 **** Fit       0.000928
 **** Fit      -0.000332
 **** Fit      -0.001662
 **** Fit      -0.002769
 **** Fit      -0.000677
 **** Fit       0.001020
 **** Fit       0.002318
 **** Fit       0.003220
 **** Fit       0.003736
 **** Fit       0.003881
 **** Fit       0.003673
 **** Fit       0.003131
 **** Fit       0.002278
 **** Fit       0.001141
 **** Fit      -0.000248
 **** Fit      -0.001849
 **** Fit      -0.003606
 **** Fit      -0.001581
 **** Fit       0.000364
 **** Fit       0.001865
 **** Fit       0.002938
 **** Fit       0.003601
 **** Fit       0.003874
 **** Fit       0.003779
 **** Fit       0.003333
 **** Fit       0.002557
 **** Fit       0.001466
 **** Fit       0.000079
 **** Fit      -0.001587
 **** Fit      -0.003514
 **** Fit       0.000032
 **** Fit       0.001698
 **** Fit       0.002879
 **** Fit       0.003608
 **** Fit       0.003913
 **** Fit       0.003821
 **** Fit       0.003358
 **** Fit       0.002542
 **** Fit       0.001390
 **** Fit      -0.000089
 **** Fit      -0.001887
 **** Fit      -0.004002
 **** Fit       0.000501
 **** Fit       0.002237
 **** Fit       0.003379
 **** Fit       0.003981
 **** Fit       0.004089
 **** Fit       0.003746
 **** Fit       0.002985
 **** Fit       0.001830
 **** Fit       0.000292
 **** Fit      -0.001624
 **** Fit       0.003449
 **** Fit       0.004353
 **** Fit       0.004597
 **** Fit       0.004260
 **** Fit       0.003407
 **** Fit       0.002080
 **** Fit       0.000303
 **** Fit       0.002781
 **** Fit       0.001687
 **** Fit       0.003204
 **** Fit       0.004256
 **** Fit       0.004838
 **** Fit       0.004920
 **** Fit       0.004443
 **** Fit       0.000079
 **** Fit       0.001871
 **** Fit       0.003245
 **** Fit       0.004216
 **** Fit       0.004782
 **** Fit       0.004926
 **** Fit       0.004619
 **** Fit       0.003812
 **** Fit       0.002436
 **** Fit       0.000646
 **** Fit       0.002236
 **** Fit       0.003477
 **** Fit       0.004379
 **** Fit       0.004938
 **** Fit       0.005145
 **** Fit       0.004981
 **** Fit       0.004421
 **** Fit       0.003430
 **** Fit       0.001961
 **** Fit      -0.000049
 **** Fit      -0.000181
 **** Fit       0.001506
 **** Fit       0.002886
 **** Fit       0.003972
 **** Fit       0.004765
 **** Fit       0.005257
 **** Fit       0.005441
 **** Fit       0.005301
 **** Fit       0.004820
 **** Fit       0.003973
 **** Fit       0.002734
 **** Fit       0.001066
 **** Fit      -0.001074
 **** Fit      -0.000447
 **** Fit       0.001258
 **** Fit       0.002685
 **** Fit       0.003846
 **** Fit       0.004741
 **** Fit       0.005359
 **** Fit       0.005690
 **** Fit       0.005720
 **** Fit       0.005434
 **** Fit       0.004814
 **** Fit       0.003841
 **** Fit       0.002491
 **** Fit       0.000740
 **** Fit      -0.001444
 **** Fit       0.001371
 **** Fit       0.002744
 **** Fit       0.003898
 **** Fit       0.004822
 **** Fit       0.005496
 **** Fit       0.005901
 **** Fit       0.006017
 **** Fit       0.005827
 **** Fit       0.005314
 **** Fit       0.004460
 **** Fit       0.003250
 **** Fit       0.001667
 **** Fit      -0.000306
 **** Fit       0.003090
 **** Fit       0.004095
 **** Fit       0.004953
 **** Fit       0.005621
 **** Fit       0.006063
 **** Fit       0.006248
 **** Fit       0.006150
 **** Fit       0.005748
 **** Fit       0.005028
 **** Fit       0.003976
 **** Fit       0.002586
 **** Fit       0.000855
 **** Fit      -0.001219
 **** Fit       0.004112
 **** Fit       0.004758
 **** Fit       0.005413
 **** Fit       0.005967
 **** Fit       0.006334
 **** Fit       0.006456
 **** Fit       0.006287
 **** Fit       0.005799
 **** Fit       0.004973
 **** Fit       0.003805
 **** Fit       0.002305
 **** Fit       0.000495
 **** Fit       0.005944
 **** Fit       0.006123
 **** Fit       0.006415
 **** Fit       0.006634
 **** Fit       0.006657
 **** Fit       0.006404
 **** Fit       0.005830
 **** Fit       0.004920
 **** Fit       0.003691
 **** Fit       0.002195
 **** Fit       0.007321
 **** Fit       0.007097
 **** Fit       0.007029
 **** Fit       0.006847
 **** Fit       0.006400
 **** Fit       0.005628
 **** Fit       0.004556
 **** Fit       0.003304
 **** Fit       0.008033
 **** Fit       0.007466
 **** Fit       0.006939
 **** Fit       0.006165
 **** Fit       0.005209
 **** Fit       0.007941
 **** Fit       0.007016
 **** Fit       0.008866
 **** Fit       0.006948
 **** Fit       0.005895
 **** Fit       0.005536
 **** Fit       0.005743
 **** Fit       0.006389
 **** Fit       0.007314
 **** Fit       0.011900
 **** Fit       0.011164
 **** Fit       0.009214
 **** Fit       0.008069
 **** Fit       0.007550
 **** Fit       0.007504
 **** Fit       0.007773
 **** Fit       0.008162
 **** Fit       0.008424
 **** Fit       0.008285
 **** Fit       0.007544
 **** Fit       0.006189
 **** Fit       0.004423
 **** Fit       0.002553
 **** Fit       0.014161
 **** Fit       0.012812
 **** Fit       0.010831
 **** Fit       0.009633
 **** Fit       0.009020
 **** Fit       0.008800
 **** Fit       0.008766
 **** Fit       0.008684
 **** Fit       0.008325
 **** Fit       0.007548
 **** Fit       0.006374
 **** Fit       0.004991
 **** Fit       0.003673
 **** Fit       0.002689
 **** Fit       0.002250
 **** Fit       0.002493
 **** Fit       0.003495
 **** Fit       0.005372
 **** Fit       0.020072
 **** Fit       0.015804
 **** Fit       0.013862
 **** Fit       0.011943
 **** Fit       0.010730
 **** Fit       0.010025
 **** Fit       0.009608
 **** Fit       0.009247
 **** Fit       0.008737
 **** Fit       0.007968
 **** Fit       0.006989
 **** Fit       0.005998
 **** Fit       0.005264
 **** Fit       0.005042
 **** Fit       0.005533
 **** Fit       0.006902
 **** Fit       0.009369
 **** Fit       0.020338
 **** Fit       0.016646
 **** Fit       0.014357
 **** Fit       0.012523
 **** Fit       0.011313
 **** Fit       0.010520
 **** Fit       0.009890
 **** Fit       0.009215
 **** Fit       0.008445
 **** Fit       0.007732
 **** Fit       0.007373
 **** Fit       0.007687
 **** Fit       0.008939
 **** Fit       0.011333
 **** Fit       0.014913
 **** Fit       0.019725
 **** Fit       0.016865
 **** Fit       0.014337
 **** Fit       0.012559
 **** Fit       0.011338
 **** Fit       0.010444
 **** Fit       0.009713
 **** Fit       0.009342
 **** Fit       0.009806
 **** Fit       0.011510
 **** Fit       0.014361
 **** Fit       0.017147
 **** Fit       0.017926
 **** Fit       0.016487
 **** Fit       0.013840
 **** Fit       0.012129
 **** Fit       0.011169
 **** Fit       0.011549
 **** Fit       0.013655
 **** Fit       0.015065
 **** Fit       0.012901
 **** Fit      -0.016307
 **** Fit      -0.016313
 **** Fit      -0.016674
 **** Fit      -0.015957
 **** Fit      -0.017348
 **** Fit      -0.015384
 **** Fit      -0.014898
 **** Fit      -0.013852
 **** Fit      -0.013559
 **** Fit      -0.012013
 **** Fit      -0.012947
 **** Fit      -0.010409
 **** Fit      -0.008402
 **** Fit      -0.006520
 **** Fit      -0.006140
 **** Fit      -0.003034
 **** Fit       0.004372
 **** Fit       0.004728
 **** Fit       0.004922
 **** Fit       0.005019
 **** Fit       0.004221
 **** Fit       0.004673
 **** Fit       0.004932
 **** Fit       0.005032
 **** Fit       0.005090
 **** Fit       0.005177
 **** Fit       0.005280
 **** Fit       0.004258
 **** Fit       0.004786
 **** Fit       0.005061
 **** Fit       0.005087
 **** Fit       0.005003
 **** Fit       0.004966
 **** Fit       0.005049
 **** Fit       0.005229
 **** Fit       0.005451
 **** Fit       0.004582
 **** Fit       0.005130
 **** Fit       0.005329
 **** Fit       0.005177
 **** Fit       0.004841
 **** Fit       0.004557
 **** Fit       0.004479
 **** Fit       0.004631
 **** Fit       0.004948
 **** Fit       0.005348
 **** Fit       0.005121
 **** Fit       0.005651
 **** Fit       0.005738
 **** Fit       0.005335
 **** Fit       0.004629
 **** Fit       0.003938
 **** Fit       0.003513
 **** Fit       0.003454
 **** Fit       0.003728
 **** Fit       0.004233
 **** Fit       0.004870
 **** Fit       0.005576
 **** Fit       0.005509
 **** Fit       0.006223
 **** Fit       0.006478
 **** Fit       0.006007
 **** Fit       0.004860
 **** Fit       0.003477
 **** Fit       0.002339
 **** Fit       0.001713
 **** Fit       0.001650
 **** Fit       0.002075
 **** Fit       0.002855
 **** Fit       0.003869
 **** Fit       0.005027
 **** Fit       0.007055
 **** Fit       0.007531
 **** Fit       0.003463
 **** Fit       0.001267
 **** Fit      -0.000326
 **** Fit      -0.001162
 **** Fit      -0.001280
 **** Fit       0.005769
 **** Fit       0.004972
 **** Fit       0.007028
 **** Fit       0.006713
 **** Fit       0.006033
 **** Fit       0.005008
 **** Fit       0.003700
 **** Fit       0.007695
 **** Fit       0.007942
 **** Fit       0.007841
 **** Fit       0.007374
 **** Fit       0.006550
 **** Fit       0.005390
 **** Fit       0.003920
 **** Fit       0.002194
 **** Fit       0.008357
 **** Fit       0.008840
 **** Fit       0.008937
 **** Fit       0.008659
 **** Fit       0.008032
 **** Fit       0.007079
 **** Fit       0.005814
 **** Fit       0.004242
 **** Fit       0.002368
 **** Fit       0.000212
 **** Fit       0.009118
 **** Fit       0.009855
 **** Fit       0.010070
 **** Fit       0.009837
 **** Fit       0.009227
 **** Fit       0.008284
 **** Fit       0.007028
 **** Fit       0.005454
 **** Fit       0.003544
 **** Fit       0.001269
 **** Fit      -0.001408
 **** Fit       0.010053
 **** Fit       0.011082
 **** Fit       0.011391
 **** Fit       0.011159
 **** Fit       0.010522
 **** Fit       0.009560
 **** Fit       0.008306
 **** Fit       0.006759
 **** Fit       0.004891
 **** Fit       0.002653
 **** Fit      -0.000031
 **** Fit      -0.003266
 **** Fit       0.012952
 **** Fit       0.012324
 **** Fit       0.011342
 **** Fit       0.010087
 **** Fit       0.008578
 **** Fit       0.006794
 **** Fit       0.004682
 **** Fit       0.002160
 **** Fit      -0.000898
 **** Fit      -0.004683
 **** Fit       0.013114
 **** Fit       0.011569
 **** Fit       0.009826
 **** Fit       0.007851
 **** Fit       0.005570
 **** Fit       0.002867
 **** Fit      -0.000429
 **** Fit      -0.004589
 **** Fit       0.012002
 **** Fit       0.009743
 **** Fit       0.007286
 **** Fit       0.004477
 **** Fit       0.001105
 **** Fit      -0.003150
 **** Fit       0.012206
 **** Fit       0.009407
 **** Fit       0.006460
 **** Fit       0.003100
 **** Fit      -0.001012
 **** Fit       0.010555
 **** Fit       0.007041
 **** Fit       0.003192
 **** Fit       0.007881
 **** Fit       0.002293
 **** Fit       0.001428
 **** Fit       0.001877
 **** Fit       0.002621
 **** Fit       0.002951
 **** Fit       0.002597
 **** Fit       0.001821
 **** Fit       0.000265
 **** Fit       0.000594
 **** Fit       0.001317
 **** Fit       0.002147
 **** Fit       0.002855
 **** Fit       0.003320
 **** Fit       0.003490
 **** Fit       0.003334
 **** Fit       0.002831
 **** Fit       0.002040
 **** Fit       0.001163
 **** Fit       0.000484
 **** Fit      -0.001301
 **** Fit      -0.000996
 **** Fit      -0.000313
 **** Fit       0.000586
 **** Fit       0.001522
 **** Fit       0.002367
 **** Fit       0.003060
 **** Fit       0.003049
 **** Fit       0.002239
 **** Fit       0.001273
 **** Fit       0.000282
 **** Fit      -0.000579
 **** Fit      -0.001149
 **** Fit      -0.003395
 **** Fit      -0.003063
 **** Fit      -0.002317
 **** Fit      -0.001289
 **** Fit      -0.000143
 **** Fit       0.000977
 **** Fit       0.001981
 **** Fit       0.002837
 **** Fit       0.002751
 **** Fit       0.001706
 **** Fit       0.000535
 **** Fit      -0.000662
 **** Fit      -0.001776
 **** Fit      -0.002685
 **** Fit      -0.003258
 **** Fit      -0.006191
 **** Fit      -0.005800
 **** Fit      -0.004911
 **** Fit      -0.003655
 **** Fit      -0.002205
 **** Fit      -0.000734
 **** Fit       0.000632
 **** Fit       0.001832
 **** Fit       0.001390
 **** Fit      -0.000059
 **** Fit      -0.001552
 **** Fit      -0.003009
 **** Fit      -0.004326
 **** Fit      -0.005380
 **** Fit      -0.006038
 **** Fit      -0.009939
 **** Fit      -0.009484
 **** Fit      -0.008420
 **** Fit      -0.006878
 **** Fit      -0.005046
 **** Fit      -0.003126
 **** Fit      -0.001287
 **** Fit       0.000364
 **** Fit      -0.000691
 **** Fit      -0.002534
 **** Fit      -0.004371
 **** Fit      -0.006132
 **** Fit      -0.007709
 **** Fit      -0.008964
 **** Fit      -0.009748
 **** Fit      -0.015031
 **** Fit      -0.014449
 **** Fit      -0.013019
 **** Fit      -0.010910
 **** Fit      -0.008376
 **** Fit      -0.005700
 **** Fit      -0.003127
 **** Fit      -0.000823
 **** Fit      -0.005037
 **** Fit      -0.007450
 **** Fit      -0.009785
 **** Fit      -0.011906
 **** Fit      -0.013624
 **** Fit      -0.014726
 **** Fit      -0.022116
 **** Fit      -0.021390
 **** Fit      -0.019462
 **** Fit      -0.016557
 **** Fit      -0.013027
 **** Fit      -0.009265
 **** Fit      -0.005627
 **** Fit      -0.008384
 **** Fit      -0.011567
 **** Fit      -0.014700
 **** Fit      -0.017603
 **** Fit      -0.020008
 **** Fit      -0.021604
 **** Fit      -0.016549
 **** Fit      -0.020980
 -----------------------------------------------------------------
 Leave Link  602 at Wed Sep 23 21:43:27 2015, MaxMem=    6291456 cpu:      13.6

 Test job not archived.
 1\1\GINC-COMPUTE-2-10\FOpt\RHF\6-31G(d)\C25H26N2O2\SHUNZHOU\23-Sep-201
 5\0\\#HF/6-31G* SCF=tight Test Pop=MK iop(6/33=2) iop(6/42=6) opt\\rem
 ark line goes here\\0,1\C,15.4533013267,-5.5914834418,13.4765930033\O,
 16.127749586,-4.7672180482,12.5699468768\C,15.6510076799,-3.5341921715
 ,12.3049232166\C,14.5100771134,-2.9901790259,12.8704291062\C,14.114423
 5722,-1.70505588,12.519743431\C,14.8310821189,-0.9391626758,11.6142545
 434\C,15.9787834508,-1.5093828531,11.0558421574\C,16.3844712693,-2.780
 5957837,11.3914964962\C,14.3964747956,0.4380369444,11.2499167901\C,13.
 9665282624,1.3334541358,12.2228163027\C,13.5683313288,2.616217022,11.8
 861329054\C,13.5600690976,3.0147409254,10.5606283125\N,13.172913469,4.
 3136146122,10.1420185616\C,14.0805044818,5.0377218036,9.2303648144\C,1
 5.0310245576,5.9508391572,9.9993058344\C,14.8372974279,4.0536751241,8.
 3164116055\C,14.0958033104,2.7186590633,8.1718243696\N,14.7730346582,1
 .8595759216,7.2233608326\C,14.080619181,1.017022801,6.3557860998\C,12.
 8222190646,0.5050178448,6.6643852022\C,12.1818275564,-0.3516722199,5.7
 82283886\C,12.7719652591,-0.7226067447,4.5881389039\C,14.0289097733,-0
 .2203225205,4.2836945586\C,14.6756182565,0.6379773552,5.1500647805\C,1
 4.0121157375,2.1413837426,9.5738798576\C,14.4291156632,0.8713250748,9.
 9243773832\C,11.989690057,4.9230649822,10.4634781721\C,10.9277866275,4
 .1310543649,11.2007557695\O,11.7743887421,6.0629277402,10.1486103141\H
 ,13.4394631557,5.6490388568,8.6156180018\H,13.0894114817,2.9302630083,
 7.8171678857\H,15.4141383435,-5.1454714878,14.4649538414\H,14.44480394
 27,-5.8089796456,13.1406802369\H,16.0165018639,-6.511312791,13.5250941
 538\H,13.9163496097,-3.5451877883,13.5704858811\H,13.2137920488,-1.309
 5785402,12.9543420769\H,16.5703845099,-0.9404384182,10.3615206753\H,17
 .2712503842,-3.2110644617,10.9648428589\H,13.9782512144,1.0434865536,1
 3.2577744121\H,13.2835978925,3.3076921141,12.6572823666\H,15.692288983
 3,6.4737226563,9.3137918523\H,14.4712958412,6.6880004776,10.5605993713
 \H,15.6441839678,5.3762135823,10.6871066482\H,14.9703530378,4.51928177
 62,7.3441404286\H,15.8267792754,3.8477261332,8.7153157354\H,15.5719698
 898,2.2801812175,6.8041158335\H,12.3477863331,0.7549670845,7.594471546
 6\H,11.2105003922,-0.7340816121,6.0425497649\H,12.2691884786,-1.388425
 6386,3.9107988457\H,14.5092164597,-0.4946740348,3.3609258876\H,15.6497
 739773,1.0209226732,4.8966318249\H,14.7691006488,0.2080959737,9.152590
 9749\H,10.9257195121,3.0795674422,10.9507561372\H,11.0657949379,4.2261
 327206,12.271873654\H,9.9759703933,4.5754848982,10.9471050172\\Version
 =AM64L-G03RevD.02\State=1-A\HF=-1220.4881941\RMSD=7.670e-09\RMSF=6.359
 e-06\Thermal=0.\Dipole=0.3394597,-1.0999179,0.473341\PG=C01 [X(C25H26N
 2O2)]\\@


 CONFIDENCE IS WHAT YOU FEEL BEFORE YOU FULLY
 COMPREHEND THE SITUATION.
 Job cpu time:  0 days  5 hours 38 minutes 38.0 seconds.
 File lengths (MBytes):  RWF=    159 Int=      0 D2E=      0 Chk=     23 Scr=      1
 Normal termination of Gaussian 03 at Wed Sep 23 21:43:27 2015.
