 Entering Gaussian System, Link 0=/share/apps/g03/g03
 Initial command:
 /share/apps//g03/l1.exe /state/partition1/mmpbsa.5/Gau-21577.inp -scrdir=/state/partition1/mmpbsa.5/
 Entering Link 1 = /share/apps//g03/l1.exe PID=     21579.
  
 Copyright (c) 1988,1990,1992,1993,1995,1998,2003,2004, Gaussian, Inc.
                  All Rights Reserved.
  
 This is the Gaussian(R) 03 program.  It is based on the
 the Gaussian(R) 98 system (copyright 1998, Gaussian, Inc.),
 the Gaussian(R) 94 system (copyright 1995, Gaussian, Inc.),
 the Gaussian 92(TM) system (copyright 1992, Gaussian, Inc.),
 the Gaussian 90(TM) system (copyright 1990, Gaussian, Inc.),
 the Gaussian 88(TM) system (copyright 1988, Gaussian, Inc.),
 the Gaussian 86(TM) system (copyright 1986, Carnegie Mellon
 University), and the Gaussian 82(TM) system (copyright 1983,
 Carnegie Mellon University). Gaussian is a federally registered
 trademark of Gaussian, Inc.
  
 This software contains proprietary and confidential information,
 including trade secrets, belonging to Gaussian, Inc.
  
 This software is provided under written license and may be
 used, copied, transmitted, or stored only in accord with that
 written license.
  
 The following legend is applicable only to US Government
 contracts under FAR:
  
                    RESTRICTED RIGHTS LEGEND
  
 Use, reproduction and disclosure by the US Government is
 subject to restrictions as set forth in subparagraphs (a)
 and (c) of the Commercial Computer Software - Restricted
 Rights clause in FAR 52.227-19.
  
 Gaussian, Inc.
 340 Quinnipiac St., Bldg. 40, Wallingford CT 06492
  
  
 ---------------------------------------------------------------
 Warning -- This program may not be used in any manner that
 competes with the business of Gaussian, Inc. or will provide
 assistance to any competitor of Gaussian, Inc.  The licensee
 of this program is prohibited from giving any competitor of
 Gaussian, Inc. access to this program.  By using this program,
 the user acknowledges that Gaussian, Inc. is engaged in the
 business of creating and licensing software in the field of
 computational chemistry and represents and warrants to the
 licensee that it is not a competitor of Gaussian, Inc. and that
 it will not use this program in any manner prohibited above.
 ---------------------------------------------------------------
  

 Cite this work as:
 Gaussian 03, Revision D.02,
 M. J. Frisch, G. W. Trucks, H. B. Schlegel, G. E. Scuseria, 
 M. A. Robb, J. R. Cheeseman, J. A. Montgomery, Jr., T. Vreven, 
 K. N. Kudin, J. C. Burant, J. M. Millam, S. S. Iyengar, J. Tomasi, 
 V. Barone, B. Mennucci, M. Cossi, G. Scalmani, N. Rega, 
 G. A. Petersson, H. Nakatsuji, M. Hada, M. Ehara, K. Toyota, 
 R. Fukuda, J. Hasegawa, M. Ishida, T. Nakajima, Y. Honda, O. Kitao, 
 H. Nakai, M. Klene, X. Li, J. E. Knox, H. P. Hratchian, J. B. Cross, 
 V. Bakken, C. Adamo, J. Jaramillo, R. Gomperts, R. E. Stratmann, 
 O. Yazyev, A. J. Austin, R. Cammi, C. Pomelli, J. W. Ochterski, 
 P. Y. Ayala, K. Morokuma, G. A. Voth, P. Salvador, J. J. Dannenberg, 
 V. G. Zakrzewski, S. Dapprich, A. D. Daniels, M. C. Strain, 
 O. Farkas, D. K. Malick, A. D. Rabuck, K. Raghavachari, 
 J. B. Foresman, J. V. Ortiz, Q. Cui, A. G. Baboul, S. Clifford, 
 J. Cioslowski, B. B. Stefanov, G. Liu, A. Liashenko, P. Piskorz, 
 I. Komaromi, R. L. Martin, D. J. Fox, T. Keith, M. A. Al-Laham, 
 C. Y. Peng, A. Nanayakkara, M. Challacombe, P. M. W. Gill, 
 B. Johnson, W. Chen, M. W. Wong, C. Gonzalez, and J. A. Pople, 
 Gaussian, Inc., Wallingford CT, 2004.
 
 ******************************************
 Gaussian 03:  AM64L-G03RevD.02  1-Mar-2006
                 8-Jun-2016 
 ******************************************
 %chk=molecule
 ------------------------------------------------------------
 #HF/6-31G* SCF=tight Test Pop=MK iop(6/33=2) iop(6/42=6) opt
 ------------------------------------------------------------
 1/18=20,38=1/1,3;
 2/9=110,17=6,18=5,40=1/2;
 3/5=1,6=6,7=1,11=9,16=1,25=1,30=1/1,2,3;
 4//1;
 5/5=2,32=2,38=5/2;
 6/7=2,8=2,9=2,10=2,15=8,20=1,28=1,33=2,42=6/1,2;
 7//1,2,3,16;
 1/18=20/3(3);
 2/9=110/2;
 6/7=2,8=2,9=2,10=2,15=8,19=2,20=1,28=1,33=2,42=6/1,2;
 99//99;
 2/9=110/2;
 3/5=1,6=6,7=1,11=9,16=1,25=1,30=1/1,2,3;
 4/5=5,16=3/1;
 5/5=2,32=2,38=5/2;
 7//1,2,3,16;
 1/18=20/3(-5);
 2/9=110/2;
 6/7=2,8=2,9=2,10=2,15=8,19=2,20=1,28=1,33=2,42=6/1,2;
 99/9=1/99;
 ---------------------
 remark line goes here
 ---------------------
 Symbolic Z-matrix:
 Charge =  0 Multiplicity = 1
 C                    -0.306     6.889    -6.881 
 C                     4.275     10.855   -7.361 
 C                     3.718     10.999   -10.437 
 C                     0.029     12.68    -14.136 
 C                    -1.42      14.643   -13.342 
 C                     0.729     14.092   -12.211 
 O                    -2.807     11.865   -13.309 
 Cl                    4.548     7.428    -15.501 
 C                     3.888     7.946    -12.938 
 C                     2.326     8.744    -14.557 
 C                     3.08      8.451    -11.914 
 C                     1.512     9.232    -13.541 
 C                    -2.515     10.791   -11.167 
 N                    -0.257     9.771    -11.464 
 N                    -2.28      7.658    -8.283 
 N                    -2.552     8.521    -9.193 
 O                    -1.083     12.54    -12.026 
 S                     1.705     9.572    -7.224 
 C                    -2.145     11.784   -12.274 
 C                     1.042     9.63     -11.155 
 C                     3.504     8.066    -14.253 
 C                    -0.991     7.774    -7.927 
 C                     1.884     9.098    -12.193 
 C                     3.015     10.306   -8.073 
 C                     2.745     10.354   -9.435 
 C                    -1.426     9.218    -9.434 
 C                     1.516     9.75     -9.815 
 C                     0.827     9.264    -8.686 
 C                    -1.233     10.333   -10.483 
 N                    -0.432     8.744    -8.682 
 C                    -0.462     13.493   -12.966 
 H                    -0.79      11.21    -9.989 
 H                    -3.172     11.282   -10.433 
 H                    -3.034     9.925    -11.603 
 H                     0.579     9.723    -13.792 
 H                     3.393     8.334    -10.883 
 H                     2.042     8.892    -15.593 
 H                     4.824     7.456    -12.693 
 H                     0.371     14.598   -11.302 
 H                     1.428     13.29    -11.932 
 H                     1.245     14.819   -12.856 
 H                    -2.321     14.229   -13.819 
 H                    -1.707     15.193   -12.433 
 H                    -0.916     15.326   -14.041 
 H                     0.763     11.938   -13.786 
 H                    -0.82      12.162   -14.605 
 H                     0.504     13.346   -14.872 
 H                     3.863     12.058   -10.178 
 H                     4.684     10.476   -10.398 
 H                     3.301     10.924   -11.452 
 H                     5.169     10.352   -7.758 
 H                     4.354     11.938   -7.539 
 H                     4.197     10.666   -6.28 
 H                     0.499     6.312    -7.36 
 H                     0.118     7.521    -6.087 
 H                    -1.044     6.199    -6.446 
 

 GradGradGradGradGradGradGradGradGradGradGradGradGradGradGradGradGradGrad
 Berny optimization.
 Initialization pass.
                           ----------------------------
                           !    Initial Parameters    !
                           ! (Angstroms and Degrees)  !
 --------------------------                            --------------------------
 ! Name  Definition              Value          Derivative Info.                !
 --------------------------------------------------------------------------------
 ! R1    R(1,22)                 1.5319         estimate D2E/DX2                !
 ! R2    R(1,54)                 1.1002         estimate D2E/DX2                !
 ! R3    R(1,55)                 1.0998         estimate D2E/DX2                !
 ! R4    R(1,56)                 1.1            estimate D2E/DX2                !
 ! R5    R(2,24)                 1.5479         estimate D2E/DX2                !
 ! R6    R(2,51)                 1.0999         estimate D2E/DX2                !
 ! R7    R(2,52)                 1.1004         estimate D2E/DX2                !
 ! R8    R(2,53)                 1.1002         estimate D2E/DX2                !
 ! R9    R(3,25)                 1.5384         estimate D2E/DX2                !
 ! R10   R(3,48)                 1.0998         estimate D2E/DX2                !
 ! R11   R(3,49)                 1.0992         estimate D2E/DX2                !
 ! R12   R(3,50)                 1.0999         estimate D2E/DX2                !
 ! R13   R(4,31)                 1.507          estimate D2E/DX2                !
 ! R14   R(4,45)                 1.1008         estimate D2E/DX2                !
 ! R15   R(4,46)                 1.0996         estimate D2E/DX2                !
 ! R16   R(4,47)                 1.1004         estimate D2E/DX2                !
 ! R17   R(5,31)                 1.5433         estimate D2E/DX2                !
 ! R18   R(5,42)                 1.1003         estimate D2E/DX2                !
 ! R19   R(5,43)                 1.1005         estimate D2E/DX2                !
 ! R20   R(5,44)                 1.0996         estimate D2E/DX2                !
 ! R21   R(6,31)                 1.5321         estimate D2E/DX2                !
 ! R22   R(6,39)                 1.1002         estimate D2E/DX2                !
 ! R23   R(6,40)                 1.0998         estimate D2E/DX2                !
 ! R24   R(6,41)                 1.1004         estimate D2E/DX2                !
 ! R25   R(7,19)                 1.2313         estimate D2E/DX2                !
 ! R26   R(8,21)                 1.7477         estimate D2E/DX2                !
 ! R27   R(9,11)                 1.3987         estimate D2E/DX2                !
 ! R28   R(9,21)                 1.3752         estimate D2E/DX2                !
 ! R29   R(9,38)                 1.0845         estimate D2E/DX2                !
 ! R30   R(10,12)                1.3903         estimate D2E/DX2                !
 ! R31   R(10,21)                1.3928         estimate D2E/DX2                !
 ! R32   R(10,37)                1.0844         estimate D2E/DX2                !
 ! R33   R(11,23)                1.3881         estimate D2E/DX2                !
 ! R34   R(11,36)                1.0838         estimate D2E/DX2                !
 ! R35   R(12,23)                1.4048         estimate D2E/DX2                !
 ! R36   R(12,35)                1.0838         estimate D2E/DX2                !
 ! R37   R(13,19)                1.5324         estimate D2E/DX2                !
 ! R38   R(13,29)                1.5235         estimate D2E/DX2                !
 ! R39   R(13,33)                1.1007         estimate D2E/DX2                !
 ! R40   R(13,34)                1.0997         estimate D2E/DX2                !
 ! R41   R(14,20)                1.3427         estimate D2E/DX2                !
 ! R42   R(14,29)                1.4936         estimate D2E/DX2                !
 ! R43   R(15,16)                1.2833         estimate D2E/DX2                !
 ! R44   R(15,22)                1.3423         estimate D2E/DX2                !
 ! R45   R(16,26)                1.346          estimate D2E/DX2                !
 ! R46   R(17,19)                1.327          estimate D2E/DX2                !
 ! R47   R(17,31)                1.4756         estimate D2E/DX2                !
 ! R48   R(18,24)                1.725          estimate D2E/DX2                !
 ! R49   R(18,28)                1.733          estimate D2E/DX2                !
 ! R50   R(20,23)                1.4386         estimate D2E/DX2                !
 ! R51   R(20,27)                1.4264         estimate D2E/DX2                !
 ! R52   R(22,30)                1.3503         estimate D2E/DX2                !
 ! R53   R(24,25)                1.3893         estimate D2E/DX2                !
 ! R54   R(25,27)                1.4211         estimate D2E/DX2                !
 ! R55   R(26,29)                1.543          estimate D2E/DX2                !
 ! R56   R(26,30)                1.3335         estimate D2E/DX2                !
 ! R57   R(27,28)                1.4091         estimate D2E/DX2                !
 ! R58   R(28,30)                1.3622         estimate D2E/DX2                !
 ! R59   R(29,32)                1.0997         estimate D2E/DX2                !
 ! A1    A(22,1,54)            109.4447         estimate D2E/DX2                !
 ! A2    A(22,1,55)            109.473          estimate D2E/DX2                !
 ! A3    A(22,1,56)            109.4156         estimate D2E/DX2                !
 ! A4    A(54,1,55)            109.4879         estimate D2E/DX2                !
 ! A5    A(54,1,56)            109.518          estimate D2E/DX2                !
 ! A6    A(55,1,56)            109.488          estimate D2E/DX2                !
 ! A7    A(24,2,51)            109.475          estimate D2E/DX2                !
 ! A8    A(24,2,52)            109.4578         estimate D2E/DX2                !
 ! A9    A(24,2,53)            109.4708         estimate D2E/DX2                !
 ! A10   A(51,2,52)            109.4718         estimate D2E/DX2                !
 ! A11   A(51,2,53)            109.4939         estimate D2E/DX2                !
 ! A12   A(52,2,53)            109.458          estimate D2E/DX2                !
 ! A13   A(25,3,48)            109.4938         estimate D2E/DX2                !
 ! A14   A(25,3,49)            109.4652         estimate D2E/DX2                !
 ! A15   A(25,3,50)            109.4312         estimate D2E/DX2                !
 ! A16   A(48,3,49)            109.5074         estimate D2E/DX2                !
 ! A17   A(48,3,50)            109.4488         estimate D2E/DX2                !
 ! A18   A(49,3,50)            109.4808         estimate D2E/DX2                !
 ! A19   A(31,4,45)            109.5141         estimate D2E/DX2                !
 ! A20   A(31,4,46)            109.4954         estimate D2E/DX2                !
 ! A21   A(31,4,47)            109.4761         estimate D2E/DX2                !
 ! A22   A(45,4,46)            109.4449         estimate D2E/DX2                !
 ! A23   A(45,4,47)            109.4381         estimate D2E/DX2                !
 ! A24   A(46,4,47)            109.4588         estimate D2E/DX2                !
 ! A25   A(31,5,42)            109.4848         estimate D2E/DX2                !
 ! A26   A(31,5,43)            109.4545         estimate D2E/DX2                !
 ! A27   A(31,5,44)            109.4637         estimate D2E/DX2                !
 ! A28   A(42,5,43)            109.4241         estimate D2E/DX2                !
 ! A29   A(42,5,44)            109.4781         estimate D2E/DX2                !
 ! A30   A(43,5,44)            109.5221         estimate D2E/DX2                !
 ! A31   A(31,6,39)            109.512          estimate D2E/DX2                !
 ! A32   A(31,6,40)            109.5099         estimate D2E/DX2                !
 ! A33   A(31,6,41)            109.5108         estimate D2E/DX2                !
 ! A34   A(39,6,40)            109.4255         estimate D2E/DX2                !
 ! A35   A(39,6,41)            109.4523         estimate D2E/DX2                !
 ! A36   A(40,6,41)            109.4168         estimate D2E/DX2                !
 ! A37   A(11,9,21)            120.4807         estimate D2E/DX2                !
 ! A38   A(11,9,38)            119.7546         estimate D2E/DX2                !
 ! A39   A(21,9,38)            119.7647         estimate D2E/DX2                !
 ! A40   A(12,10,21)           120.4348         estimate D2E/DX2                !
 ! A41   A(12,10,37)           119.7968         estimate D2E/DX2                !
 ! A42   A(21,10,37)           119.7684         estimate D2E/DX2                !
 ! A43   A(9,11,23)            121.2553         estimate D2E/DX2                !
 ! A44   A(9,11,36)            119.3813         estimate D2E/DX2                !
 ! A45   A(23,11,36)           119.3634         estimate D2E/DX2                !
 ! A46   A(10,12,23)           120.844          estimate D2E/DX2                !
 ! A47   A(10,12,35)           119.5905         estimate D2E/DX2                !
 ! A48   A(23,12,35)           119.5654         estimate D2E/DX2                !
 ! A49   A(19,13,29)           108.4178         estimate D2E/DX2                !
 ! A50   A(19,13,33)           109.6811         estimate D2E/DX2                !
 ! A51   A(19,13,34)           109.7439         estimate D2E/DX2                !
 ! A52   A(29,13,33)           109.6934         estimate D2E/DX2                !
 ! A53   A(29,13,34)           109.7784         estimate D2E/DX2                !
 ! A54   A(33,13,34)           109.5096         estimate D2E/DX2                !
 ! A55   A(20,14,29)           121.3703         estimate D2E/DX2                !
 ! A56   A(16,15,22)           109.4811         estimate D2E/DX2                !
 ! A57   A(15,16,26)           107.3306         estimate D2E/DX2                !
 ! A58   A(19,17,31)           125.8517         estimate D2E/DX2                !
 ! A59   A(24,18,28)            92.5886         estimate D2E/DX2                !
 ! A60   A(7,19,13)            121.3348         estimate D2E/DX2                !
 ! A61   A(7,19,17)            123.361          estimate D2E/DX2                !
 ! A62   A(13,19,17)           115.302          estimate D2E/DX2                !
 ! A63   A(14,20,23)           116.0434         estimate D2E/DX2                !
 ! A64   A(14,20,27)           121.928          estimate D2E/DX2                !
 ! A65   A(23,20,27)           120.961          estimate D2E/DX2                !
 ! A66   A(8,21,9)             118.9585         estimate D2E/DX2                !
 ! A67   A(8,21,10)            121.8089         estimate D2E/DX2                !
 ! A68   A(9,21,10)            119.1687         estimate D2E/DX2                !
 ! A69   A(1,22,15)            124.097          estimate D2E/DX2                !
 ! A70   A(1,22,30)            127.711          estimate D2E/DX2                !
 ! A71   A(15,22,30)           108.1393         estimate D2E/DX2                !
 ! A72   A(11,23,12)           117.7416         estimate D2E/DX2                !
 ! A73   A(11,23,20)           122.1168         estimate D2E/DX2                !
 ! A74   A(12,23,20)           120.1402         estimate D2E/DX2                !
 ! A75   A(2,24,18)            122.8678         estimate D2E/DX2                !
 ! A76   A(2,24,25)            126.6463         estimate D2E/DX2                !
 ! A77   A(18,24,25)           110.4632         estimate D2E/DX2                !
 ! A78   A(3,25,24)            122.0105         estimate D2E/DX2                !
 ! A79   A(3,25,27)            123.4347         estimate D2E/DX2                !
 ! A80   A(24,25,27)           114.5513         estimate D2E/DX2                !
 ! A81   A(16,26,29)           126.9089         estimate D2E/DX2                !
 ! A82   A(16,26,30)           109.7874         estimate D2E/DX2                !
 ! A83   A(29,26,30)           123.1618         estimate D2E/DX2                !
 ! A84   A(20,27,25)           125.0517         estimate D2E/DX2                !
 ! A85   A(20,27,28)           124.1375         estimate D2E/DX2                !
 ! A86   A(25,27,28)           110.8058         estimate D2E/DX2                !
 ! A87   A(18,28,27)           111.5252         estimate D2E/DX2                !
 ! A88   A(18,28,30)           122.2519         estimate D2E/DX2                !
 ! A89   A(27,28,30)           125.8701         estimate D2E/DX2                !
 ! A90   A(13,29,14)           111.5987         estimate D2E/DX2                !
 ! A91   A(13,29,26)           114.6579         estimate D2E/DX2                !
 ! A92   A(13,29,32)           107.5118         estimate D2E/DX2                !
 ! A93   A(14,29,26)           104.8541         estimate D2E/DX2                !
 ! A94   A(14,29,32)           109.3827         estimate D2E/DX2                !
 ! A95   A(26,29,32)           108.7392         estimate D2E/DX2                !
 ! A96   A(22,30,26)           105.1927         estimate D2E/DX2                !
 ! A97   A(22,30,28)           131.1843         estimate D2E/DX2                !
 ! A98   A(26,30,28)           123.4771         estimate D2E/DX2                !
 ! A99   A(4,31,5)             114.5266         estimate D2E/DX2                !
 ! A100  A(4,31,6)             109.8916         estimate D2E/DX2                !
 ! A101  A(4,31,17)            106.4558         estimate D2E/DX2                !
 ! A102  A(5,31,6)             108.1367         estimate D2E/DX2                !
 ! A103  A(5,31,17)            112.0379         estimate D2E/DX2                !
 ! A104  A(6,31,17)            105.4103         estimate D2E/DX2                !
 ! D1    D(54,1,22,15)         117.0606         estimate D2E/DX2                !
 ! D2    D(54,1,22,30)         -59.9798         estimate D2E/DX2                !
 ! D3    D(55,1,22,15)        -122.9341         estimate D2E/DX2                !
 ! D4    D(55,1,22,30)          60.0255         estimate D2E/DX2                !
 ! D5    D(56,1,22,15)          -2.9464         estimate D2E/DX2                !
 ! D6    D(56,1,22,30)        -179.9868         estimate D2E/DX2                !
 ! D7    D(51,2,24,18)         121.977          estimate D2E/DX2                !
 ! D8    D(51,2,24,25)         -59.9251         estimate D2E/DX2                !
 ! D9    D(52,2,24,18)        -118.0282         estimate D2E/DX2                !
 ! D10   D(52,2,24,25)          60.0698         estimate D2E/DX2                !
 ! D11   D(53,2,24,18)           1.9471         estimate D2E/DX2                !
 ! D12   D(53,2,24,25)        -179.9549         estimate D2E/DX2                !
 ! D13   D(48,3,25,24)         -59.9642         estimate D2E/DX2                !
 ! D14   D(48,3,25,27)         120.7612         estimate D2E/DX2                !
 ! D15   D(49,3,25,24)          60.0903         estimate D2E/DX2                !
 ! D16   D(49,3,25,27)        -119.1843         estimate D2E/DX2                !
 ! D17   D(50,3,25,24)        -179.9261         estimate D2E/DX2                !
 ! D18   D(50,3,25,27)           0.7993         estimate D2E/DX2                !
 ! D19   D(45,4,31,5)          175.6023         estimate D2E/DX2                !
 ! D20   D(45,4,31,6)           53.6666         estimate D2E/DX2                !
 ! D21   D(45,4,31,17)         -60.0076         estimate D2E/DX2                !
 ! D22   D(46,4,31,5)          -64.3889         estimate D2E/DX2                !
 ! D23   D(46,4,31,6)          173.6754         estimate D2E/DX2                !
 ! D24   D(46,4,31,17)          60.0013         estimate D2E/DX2                !
 ! D25   D(47,4,31,5)           55.6136         estimate D2E/DX2                !
 ! D26   D(47,4,31,6)          -66.322          estimate D2E/DX2                !
 ! D27   D(47,4,31,17)        -179.9962         estimate D2E/DX2                !
 ! D28   D(42,5,31,4)           61.3492         estimate D2E/DX2                !
 ! D29   D(42,5,31,6)         -175.7626         estimate D2E/DX2                !
 ! D30   D(42,5,31,17)         -60.0245         estimate D2E/DX2                !
 ! D31   D(43,5,31,4)         -178.7105         estimate D2E/DX2                !
 ! D32   D(43,5,31,6)          -55.8223         estimate D2E/DX2                !
 ! D33   D(43,5,31,17)          59.9159         estimate D2E/DX2                !
 ! D34   D(44,5,31,4)          -58.663          estimate D2E/DX2                !
 ! D35   D(44,5,31,6)           64.2252         estimate D2E/DX2                !
 ! D36   D(44,5,31,17)         179.9633         estimate D2E/DX2                !
 ! D37   D(39,6,31,4)         -174.2981         estimate D2E/DX2                !
 ! D38   D(39,6,31,5)           60.0362         estimate D2E/DX2                !
 ! D39   D(39,6,31,17)         -59.9538         estimate D2E/DX2                !
 ! D40   D(40,6,31,4)          -54.3054         estimate D2E/DX2                !
 ! D41   D(40,6,31,5)         -179.9711         estimate D2E/DX2                !
 ! D42   D(40,6,31,17)          60.0388         estimate D2E/DX2                !
 ! D43   D(41,6,31,4)           65.6758         estimate D2E/DX2                !
 ! D44   D(41,6,31,5)          -59.9899         estimate D2E/DX2                !
 ! D45   D(41,6,31,17)        -179.9799         estimate D2E/DX2                !
 ! D46   D(21,9,11,23)          -0.8073         estimate D2E/DX2                !
 ! D47   D(21,9,11,36)         179.1227         estimate D2E/DX2                !
 ! D48   D(38,9,11,23)         179.2102         estimate D2E/DX2                !
 ! D49   D(38,9,11,36)          -0.8598         estimate D2E/DX2                !
 ! D50   D(11,9,21,8)          179.6875         estimate D2E/DX2                !
 ! D51   D(11,9,21,10)           2.5426         estimate D2E/DX2                !
 ! D52   D(38,9,21,8)           -0.33           estimate D2E/DX2                !
 ! D53   D(38,9,21,10)        -177.4749         estimate D2E/DX2                !
 ! D54   D(21,10,12,23)          2.4744         estimate D2E/DX2                !
 ! D55   D(21,10,12,35)       -177.5891         estimate D2E/DX2                !
 ! D56   D(37,10,12,23)       -177.5332         estimate D2E/DX2                !
 ! D57   D(37,10,12,35)          2.4033         estimate D2E/DX2                !
 ! D58   D(12,10,21,8)         179.5665         estimate D2E/DX2                !
 ! D59   D(12,10,21,9)          -3.3732         estimate D2E/DX2                !
 ! D60   D(37,10,21,8)          -0.4259         estimate D2E/DX2                !
 ! D61   D(37,10,21,9)         176.6344         estimate D2E/DX2                !
 ! D62   D(9,11,23,12)          -0.1363         estimate D2E/DX2                !
 ! D63   D(9,11,23,20)        -179.6968         estimate D2E/DX2                !
 ! D64   D(36,11,23,12)        179.9338         estimate D2E/DX2                !
 ! D65   D(36,11,23,20)          0.3732         estimate D2E/DX2                !
 ! D66   D(10,12,23,11)         -0.6981         estimate D2E/DX2                !
 ! D67   D(10,12,23,20)        178.8715         estimate D2E/DX2                !
 ! D68   D(35,12,23,11)        179.3653         estimate D2E/DX2                !
 ! D69   D(35,12,23,20)         -1.065          estimate D2E/DX2                !
 ! D70   D(29,13,19,7)         147.7384         estimate D2E/DX2                !
 ! D71   D(29,13,19,17)        -32.7873         estimate D2E/DX2                !
 ! D72   D(33,13,19,7)         -92.5045         estimate D2E/DX2                !
 ! D73   D(33,13,19,17)         86.9697         estimate D2E/DX2                !
 ! D74   D(34,13,19,7)          27.8411         estimate D2E/DX2                !
 ! D75   D(34,13,19,17)       -152.6847         estimate D2E/DX2                !
 ! D76   D(19,13,29,14)        -55.1006         estimate D2E/DX2                !
 ! D77   D(19,13,29,26)       -174.1213         estimate D2E/DX2                !
 ! D78   D(19,13,29,32)         64.8466         estimate D2E/DX2                !
 ! D79   D(33,13,29,14)       -174.85           estimate D2E/DX2                !
 ! D80   D(33,13,29,26)         66.1294         estimate D2E/DX2                !
 ! D81   D(33,13,29,32)        -54.9028         estimate D2E/DX2                !
 ! D82   D(34,13,29,14)         64.7751         estimate D2E/DX2                !
 ! D83   D(34,13,29,26)        -54.2455         estimate D2E/DX2                !
 ! D84   D(34,13,29,32)       -175.2777         estimate D2E/DX2                !
 ! D85   D(29,14,20,23)       -178.984          estimate D2E/DX2                !
 ! D86   D(29,14,20,27)         12.7325         estimate D2E/DX2                !
 ! D87   D(20,14,29,13)        162.5578         estimate D2E/DX2                !
 ! D88   D(20,14,29,26)        -72.7463         estimate D2E/DX2                !
 ! D89   D(20,14,29,32)         43.7185         estimate D2E/DX2                !
 ! D90   D(22,15,16,26)         -0.2633         estimate D2E/DX2                !
 ! D91   D(16,15,22,1)        -178.9269         estimate D2E/DX2                !
 ! D92   D(16,15,22,30)         -1.3904         estimate D2E/DX2                !
 ! D93   D(15,16,26,29)        177.6078         estimate D2E/DX2                !
 ! D94   D(15,16,26,30)          1.8606         estimate D2E/DX2                !
 ! D95   D(31,17,19,7)          -5.5776         estimate D2E/DX2                !
 ! D96   D(31,17,19,13)        174.9601         estimate D2E/DX2                !
 ! D97   D(19,17,31,4)         -62.6098         estimate D2E/DX2                !
 ! D98   D(19,17,31,5)          63.3013         estimate D2E/DX2                !
 ! D99   D(19,17,31,6)        -179.3164         estimate D2E/DX2                !
 ! D100  D(28,18,24,2)        -179.272          estimate D2E/DX2                !
 ! D101  D(28,18,24,25)          2.3568         estimate D2E/DX2                !
 ! D102  D(24,18,28,27)         -1.4854         estimate D2E/DX2                !
 ! D103  D(24,18,28,30)       -175.0359         estimate D2E/DX2                !
 ! D104  D(14,20,23,11)       -156.0336         estimate D2E/DX2                !
 ! D105  D(14,20,23,12)         24.4161         estimate D2E/DX2                !
 ! D106  D(27,20,23,11)         12.3719         estimate D2E/DX2                !
 ! D107  D(27,20,23,12)       -167.1784         estimate D2E/DX2                !
 ! D108  D(14,20,27,25)       -142.3152         estimate D2E/DX2                !
 ! D109  D(14,20,27,28)         38.5694         estimate D2E/DX2                !
 ! D110  D(23,20,27,25)         49.9692         estimate D2E/DX2                !
 ! D111  D(23,20,27,28)       -129.1461         estimate D2E/DX2                !
 ! D112  D(1,22,30,26)         179.8631         estimate D2E/DX2                !
 ! D113  D(1,22,30,28)          -4.5188         estimate D2E/DX2                !
 ! D114  D(15,22,30,26)          2.4419         estimate D2E/DX2                !
 ! D115  D(15,22,30,28)        178.0599         estimate D2E/DX2                !
 ! D116  D(2,24,25,3)           -0.3302         estimate D2E/DX2                !
 ! D117  D(2,24,25,27)         179.0042         estimate D2E/DX2                !
 ! D118  D(18,24,25,3)         177.9647         estimate D2E/DX2                !
 ! D119  D(18,24,25,27)         -2.7008         estimate D2E/DX2                !
 ! D120  D(3,25,27,20)           1.7164         estimate D2E/DX2                !
 ! D121  D(3,25,27,28)        -179.0668         estimate D2E/DX2                !
 ! D122  D(24,25,27,20)       -177.6073         estimate D2E/DX2                !
 ! D123  D(24,25,27,28)          1.6094         estimate D2E/DX2                !
 ! D124  D(16,26,29,13)          8.6488         estimate D2E/DX2                !
 ! D125  D(16,26,29,14)       -114.0888         estimate D2E/DX2                !
 ! D126  D(16,26,29,32)        129.0041         estimate D2E/DX2                !
 ! D127  D(30,26,29,13)       -176.1325         estimate D2E/DX2                !
 ! D128  D(30,26,29,14)         61.1298         estimate D2E/DX2                !
 ! D129  D(30,26,29,32)        -55.7773         estimate D2E/DX2                !
 ! D130  D(16,26,30,22)         -2.6423         estimate D2E/DX2                !
 ! D131  D(16,26,30,28)       -178.6892         estimate D2E/DX2                !
 ! D132  D(29,26,30,22)       -178.5806         estimate D2E/DX2                !
 ! D133  D(29,26,30,28)          5.3725         estimate D2E/DX2                !
 ! D134  D(20,27,28,18)        179.4523         estimate D2E/DX2                !
 ! D135  D(20,27,28,30)         -7.28           estimate D2E/DX2                !
 ! D136  D(25,27,28,18)          0.227          estimate D2E/DX2                !
 ! D137  D(25,27,28,30)        173.4947         estimate D2E/DX2                !
 ! D138  D(18,28,30,22)        -40.2636         estimate D2E/DX2                !
 ! D139  D(18,28,30,26)        134.6648         estimate D2E/DX2                !
 ! D140  D(27,28,30,22)        147.1453         estimate D2E/DX2                !
 ! D141  D(27,28,30,26)        -37.9263         estimate D2E/DX2                !
 --------------------------------------------------------------------------------
 Trust Radius=3.00D-01 FncErr=1.00D-07 GrdErr=1.00D-07
 Number of steps in this run= 314 maximum allowed number of steps= 336.
 GradGradGradGradGradGradGradGradGradGradGradGradGradGradGradGradGradGrad

 Stoichiometry    C23H25ClN4O2S
 Framework group  C1[X(C23H25ClN4O2S)]
 Deg. of freedom   162
 Full point group                 C1
 Largest Abelian subgroup         C1      NOp   1
 Largest concise Abelian subgroup C1      NOp   1
                         Standard orientation:                         
 ---------------------------------------------------------------------
 Center     Atomic     Atomic              Coordinates (Angstroms)
 Number     Number      Type              X           Y           Z
 ---------------------------------------------------------------------
    1          6             0       -4.770918   -1.712597   -1.683512
    2          6             0       -2.219458   -2.674007    3.748878
    3          6             0        0.496740   -1.677012    2.556810
    4          6             0        3.036319    2.774903    0.595158
    5          6             0        2.144556    4.984826    1.546159
    6          6             0        1.689506    2.818357    2.686467
    7          8             0        1.224556    4.310052   -1.341820
    8         17             0        4.919208   -3.748322   -1.346585
    9          6             0        2.397675   -3.320134   -0.491355
   10          6             0        3.536045   -1.373091   -1.272988
   11          6             0        1.263415   -2.546259   -0.224826
   12          6             0        2.404610   -0.603971   -1.025390
   13          6             0       -0.853432    3.082096   -1.310280
   14          7             0       -0.015402    0.762776   -0.928657
   15          7             0       -3.971873    0.498075   -2.646890
   16          7             0       -3.071425    1.386690   -2.431462
   17          8             0        0.687502    3.209836    0.548944
   18         16             0       -3.376637   -1.526642    1.379438
   19          6             0        0.457573    3.590741   -0.701227
   20          6             0        0.090040   -0.368503   -0.213219
   21          6             0        3.521437   -2.745726   -1.037519
   22          6             0       -3.872396   -0.472643   -1.725194
   23          6             0        1.243952   -1.183071   -0.485984
   24          6             0       -2.046560   -1.939874    2.397176
   25          6             0       -0.853888   -1.490346    1.844268
   26          6             0       -2.373888    0.996360   -1.348479
   27          6             0       -0.989805   -0.866117    0.574810
   28          6             0       -2.342504   -0.817708    0.183121
   29          6             0       -1.154261    1.707604   -0.725970
   30          7             0       -2.833100   -0.178110   -0.914934
   31          6             0        1.916671    3.475175    1.321076
   32          1             0       -1.333099    1.837897    0.351274
   33          1             0       -1.670776    3.776871   -1.063859
   34          1             0       -0.751349    3.007820   -2.402742
   35          1             0        2.418368    0.456106   -1.250378
   36          1             0        0.382510   -3.020042    0.192494
   37          1             0        4.435876   -0.901414   -1.652040
   38          1             0        2.390641   -4.380947   -0.265866
   39          1             0        0.807048    3.266099    3.167378
   40          1             0        1.524821    1.739248    2.552122
   41          1             0        2.573438    2.977133    3.322285
   42          1             0        2.234762    5.491413    0.573555
   43          1             0        1.291902    5.405614    2.100297
   44          1             0        3.068015    5.133795    2.124205
   45          1             0        2.826171    1.695301    0.549124
   46          1             0        3.119088    3.175560   -0.425484
   47          1             0        3.982303    2.941267    1.132106
   48          1             0        0.470874   -1.168247    3.531528
   49          1             0        0.686365   -2.749203    2.707328
   50          1             0        1.298642   -1.245775    1.939779
   51          1             0       -1.642670   -3.610462    3.733987
   52          1             0       -1.854664   -2.031452    4.564269
   53          1             0       -3.283925   -2.900970    3.909391
   54          1             0       -4.157950   -2.614204   -1.831059
   55          1             0       -5.275128   -1.767375   -0.707598
   56          1             0       -5.524052   -1.645435   -2.482415
 ---------------------------------------------------------------------
 Rotational constants (GHZ):      0.1265901      0.1107832      0.0814144
 Standard basis: 6-31G(d) (6D, 7F)
 There are   523 symmetry adapted basis functions of A   symmetry.
 Integral buffers will be    131072 words long.
 Raffenetti 1 integral format.
 Two-electron integral symmetry is turned on.
   523 basis functions,  1016 primitive gaussians,   523 cartesian basis functions
   120 alpha electrons      120 beta electrons
       nuclear repulsion energy      3515.1436806739 Hartrees.
 NAtoms=   56 NActive=   56 NUniq=   56 SFac= 7.50D-01 NAtFMM=   80 NAOKFM=F Big=F
 One-electron integrals computed using PRISM.
 NBasis=   523 RedAO= T  NBF=   523
 NBsUse=   523 1.00D-06 NBFU=   523
 Harris functional with IExCor=  205 diagonalized for initial guess.
 ExpMin= 1.17D-01 ExpMax= 2.52D+04 ExpMxC= 3.78D+03 IAcc=1 IRadAn=         1 AccDes= 1.00D-06
 HarFok:  IExCor= 205 AccDes= 1.00D-06 IRadAn=         1 IDoV=1
 ScaDFX=  1.000000  1.000000  1.000000  1.000000
 Initial guess orbital symmetries:
       Occupied  (A) (A) (A) (A) (A) (A) (A) (A) (A) (A) (A) (A)
                 (A) (A) (A) (A) (A) (A) (A) (A) (A) (A) (A) (A)
                 (A) (A) (A) (A) (A) (A) (A) (A) (A) (A) (A) (A)
                 (A) (A) (A) (A) (A) (A) (A) (A) (A) (A) (A) (A)
                 (A) (A) (A) (A) (A) (A) (A) (A) (A) (A) (A) (A)
                 (A) (A) (A) (A) (A) (A) (A) (A) (A) (A) (A) (A)
                 (A) (A) (A) (A) (A) (A) (A) (A) (A) (A) (A) (A)
                 (A) (A) (A) (A) (A) (A) (A) (A) (A) (A) (A) (A)
                 (A) (A) (A) (A) (A) (A) (A) (A) (A) (A) (A) (A)
                 (A) (A) (A) (A) (A) (A) (A) (A) (A) (A) (A) (A)
       Virtual   (A) (A) (A) (A) (A) (A) (A) (A) (A) (A) (A) (A)
                 (A) (A) (A) (A) (A) (A) (A) (A) (A) (A) (A) (A)
                 (A) (A) (A) (A) (A) (A) (A) (A) (A) (A) (A) (A)
                 (A) (A) (A) (A) (A) (A) (A) (A) (A) (A) (A) (A)
                 (A) (A) (A) (A) (A) (A) (A) (A) (A) (A) (A) (A)
                 (A) (A) (A) (A) (A) (A) (A) (A) (A) (A) (A) (A)
                 (A) (A) (A) (A) (A) (A) (A) (A) (A) (A) (A) (A)
                 (A) (A) (A) (A) (A) (A) (A) (A) (A) (A) (A) (A)
                 (A) (A) (A) (A) (A) (A) (A) (A) (A) (A) (A) (A)
                 (A) (A) (A) (A) (A) (A) (A) (A) (A) (A) (A) (A)
                 (A) (A) (A) (A) (A) (A) (A) (A) (A) (A) (A) (A)
                 (A) (A) (A) (A) (A) (A) (A) (A) (A) (A) (A) (A)
                 (A) (A) (A) (A) (A) (A) (A) (A) (A) (A) (A) (A)
                 (A) (A) (A) (A) (A) (A) (A) (A) (A) (A) (A) (A)
                 (A) (A) (A) (A) (A) (A) (A) (A) (A) (A) (A) (A)
                 (A) (A) (A) (A) (A) (A) (A) (A) (A) (A) (A) (A)
                 (A) (A) (A) (A) (A) (A) (A) (A) (A) (A) (A) (A)
                 (A) (A) (A) (A) (A) (A) (A) (A) (A) (A) (A) (A)
                 (A) (A) (A) (A) (A) (A) (A) (A) (A) (A) (A) (A)
                 (A) (A) (A) (A) (A) (A) (A) (A) (A) (A) (A) (A)
                 (A) (A) (A) (A) (A) (A) (A) (A) (A) (A) (A) (A)
                 (A) (A) (A) (A) (A) (A) (A) (A) (A) (A) (A) (A)
                 (A) (A) (A) (A) (A) (A) (A) (A) (A) (A) (A) (A)
                 (A) (A) (A) (A) (A) (A) (A) (A) (A) (A) (A) (A)
                 (A) (A) (A) (A) (A) (A) (A) (A) (A) (A) (A) (A)
                 (A) (A) (A) (A) (A) (A) (A) (A) (A) (A) (A) (A)
                 (A) (A) (A) (A) (A) (A) (A) (A) (A) (A) (A) (A)
                 (A) (A) (A) (A) (A) (A) (A) (A) (A) (A) (A) (A)
                 (A) (A) (A) (A) (A) (A) (A) (A) (A) (A) (A) (A)
                 (A) (A) (A) (A) (A) (A) (A) (A) (A) (A) (A) (A)
                 (A) (A) (A) (A) (A) (A) (A) (A) (A) (A) (A) (A)
                 (A) (A) (A) (A) (A) (A) (A) (A) (A) (A) (A) (A)
                 (A) (A) (A) (A) (A) (A) (A) (A) (A) (A) (A) (A)
                 (A) (A) (A) (A) (A) (A) (A)
 The electronic state of the initial guess is 1-A.
 Requested convergence on RMS density matrix=1.00D-08 within 128 cycles.
 Requested convergence on MAX density matrix=1.00D-06.
 Requested convergence on             energy=1.00D-06.
 No special actions if energy rises.
 Integral accuracy reduced to 1.0D-05 until final iterations.
 Initial convergence to 1.0D-05 achieved.  Increase integral accuracy.
 SCF Done:  E(RHF) =  -2109.97326825     A.U. after   17 cycles
             Convg  =    0.5630D-08             -V/T =  2.0015
             S**2   =   0.0000

 **********************************************************************

            Population analysis using the SCF density.

 **********************************************************************

 Orbital symmetries:
 BldTbl:  Degeneracy threshold= 1.00D-02
       Occupied  (A) (A) (A) (A) (A) (A) (A) (A) (A) (A) (A) (A)
                 (A) (A) (A) (A) (A) (A) (A) (A) (A) (A) (A) (A)
                 (A) (A) (A) (A) (A) (A) (A) (A) (A) (A) (A) (A)
                 (A) (A) (A) (A) (A) (A) (A) (A) (A) (A) (A) (A)
                 (A) (A) (A) (A) (A) (A) (A) (A) (A) (A) (A) (A)
                 (A) (A) (A) (A) (A) (A) (A) (A) (A) (A) (A) (A)
                 (A) (A) (A) (A) (A) (A) (A) (A) (A) (A) (A) (A)
                 (A) (A) (A) (A) (A) (A) (A) (A) (A) (A) (A) (A)
                 (A) (A) (A) (A) (A) (A) (A) (A) (A) (A) (A) (A)
                 (A) (A) (A) (A) (A) (A) (A) (A) (A) (A) (A) (A)
       Virtual   (A) (A) (A) (A) (A) (A) (A) (A) (A) (A) (A) (A)
                 (A) (A) (A) (A) (A) (A) (A) (A) (A) (A) (A) (A)
                 (A) (A) (A) (A) (A) (A) (A) (A) (A) (A) (A) (A)
                 (A) (A) (A) (A) (A) (A) (A) (A) (A) (A) (A) (A)
                 (A) (A) (A) (A) (A) (A) (A) (A) (A) (A) (A) (A)
                 (A) (A) (A) (A) (A) (A) (A) (A) (A) (A) (A) (A)
                 (A) (A) (A) (A) (A) (A) (A) (A) (A) (A) (A) (A)
                 (A) (A) (A) (A) (A) (A) (A) (A) (A) (A) (A) (A)
                 (A) (A) (A) (A) (A) (A) (A) (A) (A) (A) (A) (A)
                 (A) (A) (A) (A) (A) (A) (A) (A) (A) (A) (A) (A)
                 (A) (A) (A) (A) (A) (A) (A) (A) (A) (A) (A) (A)
                 (A) (A) (A) (A) (A) (A) (A) (A) (A) (A) (A) (A)
                 (A) (A) (A) (A) (A) (A) (A) (A) (A) (A) (A) (A)
                 (A) (A) (A) (A) (A) (A) (A) (A) (A) (A) (A) (A)
                 (A) (A) (A) (A) (A) (A) (A) (A) (A) (A) (A) (A)
                 (A) (A) (A) (A) (A) (A) (A) (A) (A) (A) (A) (A)
                 (A) (A) (A) (A) (A) (A) (A) (A) (A) (A) (A) (A)
                 (A) (A) (A) (A) (A) (A) (A) (A) (A) (A) (A) (A)
                 (A) (A) (A) (A) (A) (A) (A) (A) (A) (A) (A) (A)
                 (A) (A) (A) (A) (A) (A) (A) (A) (A) (A) (A) (A)
                 (A) (A) (A) (A) (A) (A) (A) (A) (A) (A) (A) (A)
                 (A) (A) (A) (A) (A) (A) (A) (A) (A) (A) (A) (A)
                 (A) (A) (A) (A) (A) (A) (A) (A) (A) (A) (A) (A)
                 (A) (A) (A) (A) (A) (A) (A) (A) (A) (A) (A) (A)
                 (A) (A) (A) (A) (A) (A) (A) (A) (A) (A) (A) (A)
                 (A) (A) (A) (A) (A) (A) (A) (A) (A) (A) (A) (A)
                 (A) (A) (A) (A) (A) (A) (A) (A) (A) (A) (A) (A)
                 (A) (A) (A) (A) (A) (A) (A) (A) (A) (A) (A) (A)
                 (A) (A) (A) (A) (A) (A) (A) (A) (A) (A) (A) (A)
                 (A) (A) (A) (A) (A) (A) (A) (A) (A) (A) (A) (A)
                 (A) (A) (A) (A) (A) (A) (A) (A) (A) (A) (A) (A)
                 (A) (A) (A) (A) (A) (A) (A) (A) (A) (A) (A) (A)
                 (A) (A) (A) (A) (A) (A) (A) (A) (A) (A) (A) (A)
                 (A) (A) (A) (A) (A) (A) (A)
 The electronic state is 1-A.
 Alpha  occ. eigenvalues -- -104.83704 -92.00925 -20.60163 -20.53508 -15.66978
 Alpha  occ. eigenvalues --  -15.58572 -15.57853 -15.57734 -11.38243 -11.34838
 Alpha  occ. eigenvalues --  -11.31748 -11.31565 -11.31003 -11.30868 -11.30780
 Alpha  occ. eigenvalues --  -11.29895 -11.29498 -11.27893 -11.27370 -11.27071
 Alpha  occ. eigenvalues --  -11.26424 -11.26180 -11.26009 -11.25941 -11.25780
 Alpha  occ. eigenvalues --  -11.25529 -11.25294 -11.24848 -11.23129 -11.22262
 Alpha  occ. eigenvalues --  -11.21822 -10.57015  -9.01906  -8.03954  -8.03617
 Alpha  occ. eigenvalues --   -8.03616  -6.70158  -6.70060  -6.69897  -1.44765
 Alpha  occ. eigenvalues --   -1.43691  -1.33580  -1.29778  -1.24447  -1.19923
 Alpha  occ. eigenvalues --   -1.19658  -1.13898  -1.10641  -1.09784  -1.07539
 Alpha  occ. eigenvalues --   -1.06069  -1.04341  -1.03438  -1.01709  -0.97784
 Alpha  occ. eigenvalues --   -0.97193  -0.94798  -0.94737  -0.94247  -0.92191
 Alpha  occ. eigenvalues --   -0.88548  -0.85678  -0.84835  -0.84522  -0.81949
 Alpha  occ. eigenvalues --   -0.79162  -0.76011  -0.74540  -0.71820  -0.71058
 Alpha  occ. eigenvalues --   -0.70467  -0.68276  -0.66804  -0.66383  -0.66113
 Alpha  occ. eigenvalues --   -0.65742  -0.65004  -0.63787  -0.63071  -0.62691
 Alpha  occ. eigenvalues --   -0.61813  -0.60703  -0.60302  -0.59657  -0.59368
 Alpha  occ. eigenvalues --   -0.58684  -0.58512  -0.58250  -0.57994  -0.57543
 Alpha  occ. eigenvalues --   -0.56752  -0.56508  -0.55872  -0.55209  -0.54803
 Alpha  occ. eigenvalues --   -0.54379  -0.54148  -0.53064  -0.52425  -0.52214
 Alpha  occ. eigenvalues --   -0.51941  -0.51928  -0.50940  -0.49902  -0.49464
 Alpha  occ. eigenvalues --   -0.48930  -0.48488  -0.46983  -0.46251  -0.45449
 Alpha  occ. eigenvalues --   -0.44043  -0.43312  -0.42803  -0.41589  -0.40211
 Alpha  occ. eigenvalues --   -0.36854  -0.35583  -0.33397  -0.32349  -0.31841
 Alpha virt. eigenvalues --    0.05271   0.08446   0.11767   0.14088   0.16115
 Alpha virt. eigenvalues --    0.16732   0.18500   0.18985   0.19907   0.21638
 Alpha virt. eigenvalues --    0.22536   0.23049   0.23617   0.24398   0.25388
 Alpha virt. eigenvalues --    0.25871   0.26328   0.26758   0.27070   0.27550
 Alpha virt. eigenvalues --    0.28347   0.28870   0.29542   0.29654   0.30475
 Alpha virt. eigenvalues --    0.30779   0.31157   0.31362   0.32333   0.32810
 Alpha virt. eigenvalues --    0.33327   0.34219   0.34351   0.34706   0.35042
 Alpha virt. eigenvalues --    0.36324   0.36460   0.36937   0.37402   0.38538
 Alpha virt. eigenvalues --    0.38713   0.38973   0.39470   0.40153   0.41008
 Alpha virt. eigenvalues --    0.41207   0.41828   0.42167   0.42728   0.43879
 Alpha virt. eigenvalues --    0.44649   0.45190   0.45773   0.46594   0.48080
 Alpha virt. eigenvalues --    0.48886   0.49184   0.49320   0.50832   0.52124
 Alpha virt. eigenvalues --    0.53347   0.55711   0.56683   0.57938   0.59540
 Alpha virt. eigenvalues --    0.59908   0.60590   0.61656   0.62412   0.62893
 Alpha virt. eigenvalues --    0.64004   0.64578   0.66622   0.68454   0.68706
 Alpha virt. eigenvalues --    0.69309   0.69596   0.70042   0.71074   0.71366
 Alpha virt. eigenvalues --    0.72067   0.72279   0.74117   0.74431   0.75181
 Alpha virt. eigenvalues --    0.75534   0.75801   0.76555   0.76789   0.77809
 Alpha virt. eigenvalues --    0.78524   0.79286   0.79711   0.80568   0.80722
 Alpha virt. eigenvalues --    0.81245   0.81659   0.81941   0.82888   0.83210
 Alpha virt. eigenvalues --    0.83700   0.84541   0.84783   0.85129   0.86255
 Alpha virt. eigenvalues --    0.86830   0.88241   0.88515   0.89681   0.90450
 Alpha virt. eigenvalues --    0.91209   0.92051   0.92384   0.92695   0.93227
 Alpha virt. eigenvalues --    0.93631   0.94671   0.95571   0.95973   0.96210
 Alpha virt. eigenvalues --    0.96758   0.97752   0.98155   0.98663   0.98932
 Alpha virt. eigenvalues --    0.99754   1.00102   1.01270   1.02040   1.02796
 Alpha virt. eigenvalues --    1.03351   1.03955   1.05090   1.06080   1.06951
 Alpha virt. eigenvalues --    1.07382   1.08023   1.08705   1.08914   1.09258
 Alpha virt. eigenvalues --    1.09735   1.10741   1.11021   1.11527   1.11628
 Alpha virt. eigenvalues --    1.11901   1.12687   1.13359   1.13540   1.13703
 Alpha virt. eigenvalues --    1.14005   1.14326   1.14986   1.15042   1.15207
 Alpha virt. eigenvalues --    1.16171   1.16411   1.16867   1.17176   1.17870
 Alpha virt. eigenvalues --    1.18042   1.18231   1.18424   1.18667   1.19150
 Alpha virt. eigenvalues --    1.19547   1.20360   1.20776   1.21310   1.22065
 Alpha virt. eigenvalues --    1.22880   1.23560   1.23759   1.24091   1.24904
 Alpha virt. eigenvalues --    1.25540   1.26219   1.26457   1.26883   1.28839
 Alpha virt. eigenvalues --    1.28943   1.30110   1.30413   1.31255   1.33059
 Alpha virt. eigenvalues --    1.35397   1.36080   1.37363   1.38191   1.38629
 Alpha virt. eigenvalues --    1.40419   1.40922   1.42220   1.43586   1.44880
 Alpha virt. eigenvalues --    1.45057   1.45773   1.46249   1.47012   1.47543
 Alpha virt. eigenvalues --    1.49385   1.50266   1.51506   1.52206   1.53501
 Alpha virt. eigenvalues --    1.55774   1.56496   1.57785   1.59545   1.60361
 Alpha virt. eigenvalues --    1.61171   1.61668   1.62834   1.63825   1.64930
 Alpha virt. eigenvalues --    1.66680   1.67244   1.69354   1.69622   1.70553
 Alpha virt. eigenvalues --    1.70812   1.72075   1.72769   1.73951   1.75799
 Alpha virt. eigenvalues --    1.77112   1.78002   1.79066   1.79327   1.80644
 Alpha virt. eigenvalues --    1.81027   1.82185   1.82596   1.84013   1.84722
 Alpha virt. eigenvalues --    1.85107   1.87848   1.88371   1.91315   1.92728
 Alpha virt. eigenvalues --    1.94234   1.97466   1.98691   1.99139   2.01704
 Alpha virt. eigenvalues --    2.01956   2.02541   2.03824   2.04666   2.05019
 Alpha virt. eigenvalues --    2.06660   2.08897   2.09562   2.10674   2.11096
 Alpha virt. eigenvalues --    2.11586   2.12295   2.12501   2.14248   2.14662
 Alpha virt. eigenvalues --    2.15573   2.16614   2.17380   2.18732   2.19175
 Alpha virt. eigenvalues --    2.19800   2.20471   2.21208   2.23407   2.23777
 Alpha virt. eigenvalues --    2.25197   2.26004   2.26418   2.27861   2.28734
 Alpha virt. eigenvalues --    2.29493   2.30410   2.31178   2.33081   2.34247
 Alpha virt. eigenvalues --    2.35645   2.36201   2.36712   2.38031   2.38339
 Alpha virt. eigenvalues --    2.39806   2.41134   2.41720   2.42749   2.43565
 Alpha virt. eigenvalues --    2.43884   2.45257   2.46463   2.47278   2.48104
 Alpha virt. eigenvalues --    2.48944   2.49286   2.50642   2.52636   2.52866
 Alpha virt. eigenvalues --    2.53390   2.53543   2.54809   2.55531   2.56338
 Alpha virt. eigenvalues --    2.57615   2.57936   2.58155   2.58482   2.58591
 Alpha virt. eigenvalues --    2.59024   2.59713   2.60163   2.61783   2.62272
 Alpha virt. eigenvalues --    2.63488   2.64562   2.66370   2.68638   2.69517
 Alpha virt. eigenvalues --    2.70822   2.72655   2.73556   2.76205   2.77180
 Alpha virt. eigenvalues --    2.78427   2.79113   2.80658   2.81315   2.82332
 Alpha virt. eigenvalues --    2.82783   2.83804   2.84364   2.84581   2.88394
 Alpha virt. eigenvalues --    2.88896   2.91532   2.92574   2.94166   2.95687
 Alpha virt. eigenvalues --    2.97143   2.98089   2.99881   3.00508   3.02424
 Alpha virt. eigenvalues --    3.03309   3.05176   3.07906   3.08855   3.10209
 Alpha virt. eigenvalues --    3.12134   3.12175   3.12360   3.13018   3.14247
 Alpha virt. eigenvalues --    3.16911   3.19208   3.24233   3.26062   3.28761
 Alpha virt. eigenvalues --    3.29467   3.33360   3.33755   3.39246   3.42158
 Alpha virt. eigenvalues --    3.49042   3.49346   3.57271   3.60941   3.66018
 Alpha virt. eigenvalues --    3.70235   3.78736   4.21378   4.34118   4.44723
 Alpha virt. eigenvalues --    4.47213   4.47704   4.50661   4.52621   4.54367
 Alpha virt. eigenvalues --    4.56798   4.58722   4.60022   4.60466   4.65575
 Alpha virt. eigenvalues --    4.66530   4.67625   4.70049   4.71571   4.73352
 Alpha virt. eigenvalues --    4.73940   4.74872   4.76373   4.79100   4.80033
 Alpha virt. eigenvalues --    4.84468   4.91337   4.91787   4.96180   5.05761
 Alpha virt. eigenvalues --    5.11108   5.14068   5.21194
          Condensed to atoms (all electrons):
 Mulliken atomic charges:
              1
     1  C   -0.528102
     2  C   -0.478288
     3  C   -0.507859
     4  C   -0.509001
     5  C   -0.500246
     6  C   -0.470658
     7  O   -0.616073
     8  Cl   0.013398
     9  C   -0.191496
    10  C   -0.199256
    11  C   -0.205165
    12  C   -0.171869
    13  C   -0.394980
    14  N   -0.545061
    15  N   -0.338245
    16  N   -0.362231
    17  O   -0.684378
    18  S    0.363703
    19  C    0.836873
    20  C    0.334302
    21  C   -0.120412
    22  C    0.465655
    23  C   -0.048097
    24  C   -0.276971
    25  C    0.043141
    26  C    0.519591
    27  C   -0.052516
    28  C    0.060612
    29  C   -0.051478
    30  N   -0.718342
    31  C    0.321597
    32  H    0.214008
    33  H    0.220901
    34  H    0.249761
    35  H    0.269817
    36  H    0.235234
    37  H    0.235357
    38  H    0.229878
    39  H    0.172357
    40  H    0.165422
    41  H    0.167103
    42  H    0.219977
    43  H    0.165451
    44  H    0.161218
    45  H    0.168280
    46  H    0.218636
    47  H    0.157609
    48  H    0.186895
    49  H    0.182276
    50  H    0.203640
    51  H    0.194529
    52  H    0.197790
    53  H    0.187837
    54  H    0.191220
    55  H    0.188827
    56  H    0.227828
 Sum of Mulliken charges=   0.00000
 Atomic charges with hydrogens summed into heavy atoms:
              1
     1  C    0.079773
     2  C    0.101867
     3  C    0.064952
     4  C    0.035525
     5  C    0.046401
     6  C    0.034224
     7  O   -0.616073
     8  Cl   0.013398
     9  C    0.038382
    10  C    0.036101
    11  C    0.030069
    12  C    0.097949
    13  C    0.075682
    14  N   -0.545061
    15  N   -0.338245
    16  N   -0.362231
    17  O   -0.684378
    18  S    0.363703
    19  C    0.836873
    20  C    0.334302
    21  C   -0.120412
    22  C    0.465655
    23  C   -0.048097
    24  C   -0.276971
    25  C    0.043141
    26  C    0.519591
    27  C   -0.052516
    28  C    0.060612
    29  C    0.162529
    30  N   -0.718342
    31  C    0.321597
    32  H    0.000000
    33  H    0.000000
    34  H    0.000000
    35  H    0.000000
    36  H    0.000000
    37  H    0.000000
    38  H    0.000000
    39  H    0.000000
    40  H    0.000000
    41  H    0.000000
    42  H    0.000000
    43  H    0.000000
    44  H    0.000000
    45  H    0.000000
    46  H    0.000000
    47  H    0.000000
    48  H    0.000000
    49  H    0.000000
    50  H    0.000000
    51  H    0.000000
    52  H    0.000000
    53  H    0.000000
    54  H    0.000000
    55  H    0.000000
    56  H    0.000000
 Sum of Mulliken charges=   0.00000
 Entering OneElI...
 OneElI was handed  5870657 working-precision words.
 Multipole integrals L=0 to 4 MinM= 0 MaxM= 0.
 Requested accuracy = 0.1000D-12
 PrsmSu:  NPrtUS=   1 ThrOK=F
 PRISM was handed     4921671 working-precision words and 10947 shell-pairs
 Electronic moments (au):
  -240.00000000    -0.15404574    -1.87164497     3.40388962
 -6457.61742766 -5615.87746072 -2484.98217371    11.84917675
    -7.16862316     6.38906218 -1338.83702312 -9769.54609031
 -4292.26091756-15254.61151447 14040.81858111  8030.90092387
  3903.27019050  1493.92521159 -1853.49836063 -8595.83879063
******************************-66159.18793817 60895.10087926
  2821.05891605   848.06939546-25489.77832552  -437.83550354
 15561.60030296***************-68601.64671340-55991.49412379
-31813.76694686 14033.84224523-13139.88145068
 Electronic spatial extent (au):  <R**2>= 14558.4771
 Nuclear    moments (au):
   240.00000000     0.00000000     0.00000000     0.00000000
  6305.97957179  5466.03658987  2332.10662033     0.00000000
     0.00000000     0.00000000  1351.94290952  9706.91709053
  4412.81832480 15194.96702624-14048.45206815 -7942.06851129
 -3853.97399656 -1542.11018790  1961.80097302  8589.57222762
334293.43157413253141.79644598 57034.85014909-59782.17865304
 -3328.59054351 -1034.04138232 25890.15304607  -150.58710627
-15577.78278860147679.57361226 62831.97059659 51125.10978087
 32099.20564194-13791.30978771 13548.63452293
 Total      moments (au):
     0.00000000    -0.15404574    -1.87164497     3.40388962
  -151.63785587  -149.84087085  -152.87555338    11.84917675
    -7.16862316     6.38906218    13.10588640   -62.62899977
   120.55740724   -59.64448823    -7.63348704    88.83241258
    49.29619394   -48.18497631   108.30261239    -6.26656301
-23527.58314765-20410.41486630 -9124.33778907  1112.92222622
  -507.53162746  -185.97198686   400.37472054  -588.42260981
   -16.18248563 -7382.11446006 -5769.67611682 -4866.38434292
   285.43869508   242.53245752   408.75307224
 Charge=     0.0000 electrons
 Dipole moment (field-independent basis, Debye):
    X=    -0.3915    Y=    -4.7572    Z=     8.6518  Tot=     9.8812
 Quadrupole moment (field-independent basis, Debye-Ang):
   XX=  -203.9581   YY=  -201.5411   ZZ=  -205.6228
   XY=    15.9375   XZ=    -9.6420   YZ=     8.5935
 Traceless Quadrupole moment (field-independent basis, Debye-Ang):
   XX=    -0.2508   YY=     2.1663   ZZ=    -1.9155
   XY=    15.9375   XZ=    -9.6420   YZ=     8.5935
 Octapole moment (field-independent basis, Debye-Ang**2):
  XXX=     9.3283  YYY=   -44.5769  ZZZ=    85.8081  XYY=   -42.4526
  XXY=    -5.4332  XXZ=    63.2275  XZZ=    35.0871  YZZ=   -34.2962
  YYZ=    77.0856  XYZ=    -4.4603
 Hexadecapole moment (field-independent basis, Debye-Ang**3):
 XXXX= -8861.6153 YYYY= -7687.5403 ZZZZ= -3436.6628 XXXY=   419.1798
 XXXZ=  -191.1607 YYYX=   -70.0460 YYYZ=   150.8003 ZZZX=  -221.6282
 ZZZY=    -6.0951 XXYY= -2780.4581 XXZZ= -2173.1365 YYZZ= -1832.9135
 XXYZ=   107.5099 YYXZ=    91.3493 ZZXY=   153.9560
 N-N= 3.515143680674D+03 E-N=-1.199364522452D+04  KE= 2.106906894941D+03
 Entering OneElI...
 OneElI was handed  5321676 working-precision words.
 Calculate electrostatic properties
    NBasis =   523  MinDer = 0  MaxDer = 0
    NGrid  =    56  NMatD  =   1
 Requested accuracy = 0.1000D-12
 PrsmSu:  NPrtUS=   1 ThrOK=F
 PRISM was handed     4488055 working-precision words and  9294 shell-pairs
 --------------------------------------------------------
       Center         ----      EFG at Nuclei      ----
                      3XX-RR        3YY-RR        3ZZ-RR
 --------------------------------------------------------
     1   Atom       -0.010029     -0.064677      0.074706
     2   Atom        0.064294      0.023991     -0.088285
     3   Atom       -0.054437      0.031373      0.023064
     4   Atom       -0.028824     -0.007397      0.036220
     5   Atom        0.001541     -0.059108      0.057567
     6   Atom        0.013235      0.004982     -0.018217
     7   Atom        0.131170     -0.863430      0.732259
     8   Atom       -1.632121      0.014863      1.617258
     9   Atom        0.100108      0.123399     -0.223507
    10   Atom        0.133276      0.104754     -0.238030
    11   Atom        0.096530      0.174323     -0.270853
    12   Atom        0.119809      0.197883     -0.317691
    13   Atom       -0.040704     -0.039240      0.079944
    14   Atom        0.245136     -0.308778      0.063642
    15   Atom        0.119258     -0.512399      0.393141
    16   Atom       -0.498842      0.490006      0.008836
    17   Atom       -0.035456      1.006805     -0.971349
    18   Atom        0.289343      1.078006     -1.367349
    19   Atom        0.230196     -0.226470     -0.003726
    20   Atom        0.113113      0.073074     -0.186187
    21   Atom       -0.089899      0.179990     -0.090091
    22   Atom       -0.094880      0.167880     -0.072999
    23   Atom        0.067622      0.139123     -0.206745
    24   Atom        0.026511     -0.049541      0.023030
    25   Atom        0.117854     -0.167642      0.049788
    26   Atom        0.054495     -0.121040      0.066546
    27   Atom        0.044607     -0.120321      0.075714
    28   Atom        0.154600     -0.038678     -0.115922
    29   Atom       -0.169946     -0.000184      0.170130
    30   Atom        0.113257     -0.065310     -0.047947
    31   Atom       -0.273073      0.254609      0.018465
    32   Atom        0.128443      0.128286     -0.256729
    33   Atom       -0.092684     -0.031917      0.124601
    34   Atom        0.136120      0.135280     -0.271401
    35   Atom        0.148364     -0.283873      0.135508
    36   Atom       -0.146979      0.053911      0.093068
    37   Atom       -0.164279      0.055755      0.108524
    38   Atom        0.144059     -0.287528      0.143469
    39   Atom       -0.130305      0.071195      0.059111
    40   Atom        0.138791     -0.272750      0.133959
    41   Atom       -0.134239      0.136464     -0.002225
    42   Atom        0.137048      0.041527     -0.178575
    43   Atom       -0.113687      0.076124      0.037564
    44   Atom       -0.158717      0.130096      0.028621
    45   Atom        0.126180     -0.267842      0.141661
    46   Atom        0.133950      0.087152     -0.221102
    47   Atom       -0.176657      0.136104      0.040552
    48   Atom        0.140005      0.056225     -0.196230
    49   Atom        0.128846     -0.267392      0.138546
    50   Atom       -0.086293      0.080831      0.005462
    51   Atom        0.027020     -0.167505      0.140485
    52   Atom        0.098666     -0.002851     -0.095815
    53   Atom       -0.256300      0.128584      0.127717
    54   Atom        0.007457     -0.149845      0.142388
    55   Atom        0.052560      0.141582     -0.194142
    56   Atom       -0.058144      0.137533     -0.079389
 --------------------------------------------------------
                        XY            XZ            YZ
 --------------------------------------------------------
     1   Atom       -0.099686      0.016060     -0.016937
     2   Atom       -0.010107      0.018878      0.086508
     3   Atom        0.018062     -0.072695     -0.000747
     4   Atom        0.020382      0.004352     -0.036837
     5   Atom       -0.007079     -0.009481     -0.044428
     6   Atom       -0.008526      0.007020      0.022140
     7   Atom        0.075835      1.286451      0.127036
     8   Atom        2.585676      0.708800     -0.589537
     9   Atom       -0.042780     -0.131430     -0.065122
    10   Atom       -0.044457     -0.136991     -0.061254
    11   Atom       -0.045637     -0.162831     -0.082648
    12   Atom       -0.039450     -0.173003     -0.093122
    13   Atom       -0.064615     -0.056715      0.001896
    14   Atom        0.252772     -0.786861     -0.325226
    15   Atom       -0.113555      0.791988     -0.130834
    16   Atom        0.063389     -0.102995     -0.716387
    17   Atom       -0.058707     -1.157713      0.221991
    18   Atom        0.020977     -0.001231      1.441865
    19   Atom        0.413680      0.092318     -0.176383
    20   Atom       -0.143074     -0.212336     -0.185801
    21   Atom        0.273120     -0.077507     -0.159712
    22   Atom        0.089489     -0.064377     -0.130818
    23   Atom        0.008805     -0.119954     -0.097686
    24   Atom        0.086288     -0.165178     -0.096208
    25   Atom        0.030690      0.000606     -0.139407
    26   Atom        0.049905      0.201350      0.019572
    27   Atom        0.039039     -0.007523     -0.134201
    28   Atom        0.035838      0.066822      0.022430
    29   Atom        0.085439     -0.017576     -0.063885
    30   Atom       -0.172390     -0.342810      0.282797
    31   Atom       -0.093506     -0.384099     -0.045368
    32   Atom        0.009246      0.069218     -0.043144
    33   Atom        0.194934      0.071985     -0.061624
    34   Atom       -0.001351      0.041435     -0.024015
    35   Atom       -0.013291      0.009980      0.089902
    36   Atom       -0.158202      0.148707      0.078554
    37   Atom       -0.161846      0.138329      0.072694
    38   Atom       -0.003579      0.009974      0.096607
    39   Atom        0.141307      0.153707     -0.072811
    40   Atom       -0.064309     -0.004705     -0.050133
    41   Atom       -0.053354     -0.198022     -0.031534
    42   Atom       -0.017536      0.033854      0.173273
    43   Atom        0.124582      0.170540     -0.083692
    44   Atom       -0.046516     -0.194500     -0.030897
    45   Atom       -0.078865      0.002230     -0.019174
    46   Atom       -0.012293      0.038187      0.135944
    47   Atom       -0.052218     -0.179746     -0.037164
    48   Atom        0.005746      0.007712     -0.177787
    49   Atom        0.073321     -0.013943      0.058260
    50   Atom       -0.120034      0.163043      0.095431
    51   Atom        0.193059      0.005932     -0.001636
    52   Atom       -0.085728     -0.104581     -0.182795
    53   Atom       -0.085613      0.059283      0.020405
    54   Atom        0.191725      0.030222     -0.047286
    55   Atom       -0.018866      0.172532      0.017119
    56   Atom        0.013044     -0.212732      0.019246
 --------------------------------------------------------


 ---------------------------------------------------------------------------------
              Nuclear Quadrupole in Principal Axis System
 ---------------------------------------------------------------------------------

       Atom             a.u.   MegaHertz   Gauss  10(-4) cm-1        Axes

              Baa    -0.1408   -18.891    -6.741    -6.302  0.6048  0.7962  0.0175
     1 C(13)  Bbb     0.0469     6.299     2.248     2.101 -0.6202  0.4571  0.6375
              Bcc     0.0938    12.593     4.493     4.200  0.4996 -0.3965  0.7702
 
              Baa    -0.1375   -18.457    -6.586    -6.157 -0.1055 -0.4746  0.8739
     2 C(13)  Bbb     0.0666     8.932     3.187     2.979  0.9940 -0.0759  0.0788
              Bcc     0.0710     9.525     3.399     3.177  0.0290  0.8769  0.4797
 
              Baa    -0.0998   -13.394    -4.779    -4.468  0.8553 -0.1149  0.5053
     3 C(13)  Bbb     0.0304     4.083     1.457     1.362 -0.0385  0.9583  0.2831
              Bcc     0.0694     9.311     3.322     3.106 -0.5168 -0.2616  0.8152
 
              Baa    -0.0487    -6.530    -2.330    -2.178  0.7136 -0.6286 -0.3094
     4 C(13)  Bbb    -0.0090    -1.213    -0.433    -0.405  0.6964  0.5880  0.4116
              Bcc     0.0577     7.744     2.763     2.583 -0.0768 -0.5091  0.8573
 
              Baa    -0.0753   -10.110    -3.607    -3.372  0.1262  0.9381  0.3226
     5 C(13)  Bbb     0.0021     0.288     0.103     0.096  0.9875 -0.1496  0.0490
              Bcc     0.0732     9.822     3.505     3.276 -0.0942 -0.3124  0.9453
 
              Baa    -0.0339    -4.553    -1.624    -1.519 -0.2168 -0.5183  0.8273
     6 C(13)  Bbb     0.0131     1.760     0.628     0.587  0.8062  0.3828  0.4511
              Bcc     0.0208     2.793     0.996     0.932 -0.5504  0.7648  0.3348
 
              Baa    -0.9019    65.263    23.288    21.770  0.6402  0.5404 -0.5460
     7 O(17)  Bbb    -0.8591    62.161    22.181    20.735 -0.4533  0.8395  0.2995
              Bcc     1.7610  -127.425   -45.468   -42.504  0.6202  0.0558  0.7825
 
              Baa    -3.6821  -192.710   -68.764   -64.281  0.7944 -0.5829 -0.1711
     8 Cl(35) Bbb     1.7555    91.877    32.784    30.647  0.3391  0.1918  0.9210
              Bcc     1.9266   100.833    35.980    33.634  0.5040  0.7896 -0.3500
 
              Baa    -0.2842   -38.142   -13.610   -12.723  0.3363  0.1829  0.9238
     9 C(13)  Bbb     0.1233    16.547     5.904     5.520  0.5279  0.7758 -0.3457
              Bcc     0.1609    21.595     7.706     7.203  0.7799 -0.6039 -0.1643
 
              Baa    -0.2961   -39.734   -14.178   -13.254  0.3158  0.1775  0.9321
    10 C(13)  Bbb     0.1101    14.781     5.274     4.930  0.2466  0.9332 -0.2612
              Bcc     0.1859    24.953     8.904     8.323  0.9162 -0.3124 -0.2509
 
              Baa    -0.3493   -46.876   -16.727   -15.636  0.3535  0.1758  0.9188
    11 C(13)  Bbb     0.1537    20.624     7.359     6.879  0.8596  0.3263 -0.3932
              Bcc     0.1956    26.252     9.367     8.757 -0.3689  0.9288 -0.0358
 
              Baa    -0.3950   -53.007   -18.914   -17.681  0.3256  0.1678  0.9305
    12 C(13)  Bbb     0.1788    23.988     8.559     8.001  0.9189  0.1757 -0.3532
              Bcc     0.2163    29.019    10.355     9.680 -0.2228  0.9700 -0.0970
 
              Baa    -0.1130   -15.165    -5.411    -5.059  0.7380  0.6410  0.2106
    13 C(13)  Bbb     0.0054     0.726     0.259     0.242 -0.5247  0.7415 -0.4181
              Bcc     0.1076    14.439     5.152     4.816 -0.4242  0.1981  0.8836
 
              Baa    -0.6600   -25.456    -9.083    -8.491  0.5819  0.2861  0.7613
    14 N(14)  Bbb    -0.4061   -15.662    -5.588    -5.224 -0.4008  0.9154 -0.0377
              Bcc     1.0661    41.117    14.672    13.715  0.7076  0.2832 -0.6473
 
              Baa    -0.5479   -21.133    -7.541    -7.049  0.7665  0.1523 -0.6239
    15 N(14)  Bbb    -0.5309   -20.474    -7.306    -6.829 -0.0483  0.9824  0.1805
              Bcc     1.0788    41.607    14.846    13.879  0.6404 -0.1082  0.7604
 
              Baa    -0.5532   -21.335    -7.613    -7.117  0.7083  0.3699  0.6013
    16 N(14)  Bbb    -0.4602   -17.749    -6.333    -5.920  0.7021 -0.4580 -0.5453
              Bcc     1.0134    39.083    13.946    13.037  0.0737  0.8084 -0.5840
 
              Baa    -1.7604   127.382    45.453    42.490  0.5552 -0.0548  0.8299
    17 O(17)  Bbb     0.6612   -47.845   -17.072   -15.959  0.7605  0.4374 -0.4798
              Bcc     1.0992   -79.537   -28.381   -26.531 -0.3367  0.8976  0.2845
 
              Baa    -2.0352   -83.441   -29.774   -27.833  0.0043 -0.4203  0.9074
    18 S(33)  Bbb     0.2891    11.855     4.230     3.954  0.9999 -0.0097 -0.0092
              Bcc     1.7460    71.586    25.544    23.879  0.0127  0.9073  0.4202
 
              Baa    -0.5439   -72.979   -26.041   -24.343 -0.4740  0.8099  0.3455
    19 C(13)  Bbb     0.0692     9.291     3.315     3.099  0.1959 -0.2856  0.9381
              Bcc     0.4746    63.688    22.726    21.244  0.8584  0.5124 -0.0233
 
              Baa    -0.4077   -54.715   -19.524   -18.251  0.4398  0.4346  0.7860
    20 C(13)  Bbb     0.1615    21.678     7.735     7.231  0.2792  0.7656 -0.5796
              Bcc     0.2462    33.036    11.788    11.020  0.8536 -0.4743 -0.2154
 
              Baa    -0.2624   -35.211   -12.564   -11.745  0.8161 -0.5581 -0.1502
    21 C(13)  Bbb    -0.1495   -20.055    -7.156    -6.690  0.3064  0.1975  0.9312
              Bcc     0.4119    55.267    19.721    18.435  0.4900  0.8060 -0.3321
 
              Baa    -0.1512   -20.289    -7.239    -6.768  0.6588  0.1197  0.7427
    22 C(13)  Bbb    -0.1071   -14.372    -5.128    -4.794  0.6929 -0.4810 -0.5371
              Bcc     0.2583    34.661    12.368    11.562  0.2930  0.8685 -0.3999
 
              Baa    -0.2710   -36.372   -12.978   -12.132  0.3213  0.2129  0.9227
    23 C(13)  Bbb     0.0881    11.828     4.221     3.945  0.8497 -0.4949 -0.1817
              Bcc     0.1829    24.544     8.758     8.187  0.4180  0.8425 -0.3399
 
              Baa    -0.1418   -19.031    -6.791    -6.348  0.6407  0.1793  0.7466
    24 C(13)  Bbb    -0.1044   -14.013    -5.000    -4.674 -0.4152  0.8988  0.1404
              Bcc     0.2463    33.044    11.791    11.022 -0.6459 -0.3999  0.6503
 
              Baa    -0.2379   -31.923   -11.391   -10.648 -0.0781  0.8971  0.4349
    25 C(13)  Bbb     0.1060    14.227     5.076     4.746  0.6745 -0.2736  0.6857
              Bcc     0.1319    17.697     6.315     5.903  0.7341  0.3469 -0.5837
 
              Baa    -0.1571   -21.083    -7.523    -7.032  0.6260 -0.5882 -0.5121
    26 C(13)  Bbb    -0.1110   -14.894    -5.314    -4.968  0.3521  0.7990 -0.4874
              Bcc     0.2681    35.976    12.837    12.000  0.6958  0.1248  0.7073
 
              Baa    -0.1927   -25.855    -9.226    -8.624 -0.1321  0.8881  0.4403
    27 C(13)  Bbb     0.0430     5.766     2.058     1.923  0.9637  0.0111  0.2669
              Bcc     0.1497    20.089     7.168     6.701 -0.2321 -0.4596  0.8573
 
              Baa    -0.1336   -17.930    -6.398    -5.981 -0.2054 -0.1509  0.9670
    28 C(13)  Bbb    -0.0440    -5.905    -2.107    -1.970 -0.2112  0.9716  0.1068
              Bcc     0.1776    23.835     8.505     7.951  0.9556  0.1823  0.2315
 
              Baa    -0.2057   -27.602    -9.849    -9.207  0.9205 -0.3899 -0.0232
    29 C(13)  Bbb     0.0087     1.162     0.415     0.388  0.3694  0.8496  0.3764
              Bcc     0.1970    26.440     9.434     8.819 -0.1270 -0.3551  0.9262
 
              Baa    -0.3865   -14.908    -5.319    -4.973  0.3691 -0.4946  0.7868
    30 N(14)  Bbb    -0.1601    -6.174    -2.203    -2.059  0.6583  0.7368  0.1544
              Bcc     0.5466    21.082     7.522     7.032  0.6561 -0.4610 -0.5975
 
              Baa    -0.5512   -73.970   -26.394   -24.674  0.8178  0.1265  0.5614
    31 C(13)  Bbb     0.2581    34.633    12.358    11.552  0.2077  0.8449 -0.4930
              Bcc     0.2931    39.337    14.037    13.122 -0.5367  0.5198  0.6647
 
              Baa    -0.2736  -145.994   -52.094   -48.698 -0.1711  0.1090  0.9792
    32 H(1)   Bbb     0.1328    70.831    25.274    23.627 -0.1918  0.9712 -0.1417
              Bcc     0.1409    75.164    26.820    25.072  0.9664  0.2120  0.1452
 
              Baa    -0.2817  -150.296   -53.629   -50.133  0.7398 -0.6334 -0.2271
    33 H(1)   Bbb     0.1350    72.023    25.699    24.024  0.6503  0.7597 -0.0007
              Bcc     0.1467    78.273    27.930    26.109  0.1730 -0.1472  0.9739
 
              Baa    -0.2769  -147.762   -52.725   -49.288 -0.0995  0.0575  0.9934
    34 H(1)   Bbb     0.1343    71.660    25.570    23.903  0.5326  0.8463  0.0043
              Bcc     0.1426    76.102    27.155    25.385  0.8405 -0.5295  0.1148
 
              Baa    -0.3028  -161.577   -57.655   -53.896  0.0333  0.9789 -0.2015
    35 H(1)   Bbb     0.1439    76.764    27.391    25.606  0.8175 -0.1427 -0.5579
              Bcc     0.1590    84.814    30.264    28.291  0.5749  0.1462  0.8051
 
              Baa    -0.3050  -162.719   -58.062   -54.277  0.8084  0.4416 -0.3892
    36 H(1)   Bbb     0.1406    75.009    26.765    25.020 -0.4399  0.8926  0.0989
              Bcc     0.1644    87.710    31.297    29.257  0.3911  0.0912  0.9158
 
              Baa    -0.3085  -164.608   -58.736   -54.907  0.8278  0.4378 -0.3509
    37 H(1)   Bbb     0.1414    75.460    26.926    25.171 -0.4621  0.8867  0.0161
              Bcc     0.1671    89.149    31.811    29.737  0.3182  0.1488  0.9363
 
              Baa    -0.3083  -164.473   -58.688   -54.862  0.0124  0.9778 -0.2094
    38 H(1)   Bbb     0.1407    75.056    26.782    25.036  0.9335 -0.0863 -0.3480
              Bcc     0.1676    89.417    31.906    29.826  0.3583  0.1912  0.9138
 
              Baa    -0.2867  -152.960   -54.580   -51.022  0.8004 -0.4058 -0.4412
    39 H(1)   Bbb     0.1382    73.744    26.314    24.598  0.0043  0.7399 -0.6727
              Bcc     0.1485    79.216    28.266    26.423  0.5995  0.5365  0.5940
 
              Baa    -0.2885  -153.955   -54.935   -51.354  0.1490  0.9817  0.1181
    40 H(1)   Bbb     0.1391    74.197    26.475    24.750 -0.3039 -0.0682  0.9503
              Bcc     0.1495    79.757    28.459    26.604  0.9410 -0.1775  0.2881
 
              Baa    -0.2860  -152.588   -54.447   -50.898  0.8038  0.1446  0.5770
    41 H(1)   Bbb     0.1369    73.046    26.064    24.365 -0.4257 -0.5377  0.7278
              Bcc     0.1491    79.543    28.383    26.533 -0.4155  0.8306  0.3707
 
              Baa    -0.2773  -147.953   -52.793   -49.352 -0.0916 -0.4794  0.8728
    42 H(1)   Bbb     0.1365    72.845    25.993    24.298 -0.2244  0.8639  0.4509
              Bcc     0.1408    75.108    26.800    25.053  0.9702  0.1545  0.1867
 
              Baa    -0.2867  -152.964   -54.582   -51.023  0.7735 -0.3822 -0.5055
    43 H(1)   Bbb     0.1378    73.523    26.235    24.525  0.4179  0.9073 -0.0466
              Bcc     0.1489    79.442    28.347    26.499  0.4764 -0.1752  0.8616
 
              Baa    -0.2884  -153.863   -54.902   -51.323  0.8391  0.1322  0.5277
    44 H(1)   Bbb     0.1374    73.309    26.158    24.453 -0.1666  0.9859  0.0179
              Bcc     0.1510    80.554    28.744    26.870 -0.5179 -0.1029  0.8492
 
              Baa    -0.2838  -151.442   -54.038   -50.516  0.1885  0.9811  0.0432
    45 H(1)   Bbb     0.1361    72.606    25.908    24.219  0.7313 -0.1108 -0.6730
              Bcc     0.1478    78.836    28.131    26.297  0.6555 -0.1585  0.7384
 
              Baa    -0.2764  -147.475   -52.623   -49.192 -0.0972 -0.3515  0.9311
    46 H(1)   Bbb     0.1362    72.658    25.926    24.236  0.7603 -0.6299 -0.1584
              Bcc     0.1402    74.816    26.696    24.956  0.6422  0.6926  0.3284
 
              Baa    -0.2877  -153.477   -54.764   -51.194  0.8601  0.1488  0.4879
    47 H(1)   Bbb     0.1369    73.060    26.070    24.370 -0.4715  0.5968  0.6492
              Bcc     0.1507    80.416    28.695    26.824  0.1946  0.7885 -0.5835
 
              Baa    -0.2883  -153.798   -54.879   -51.302 -0.0222  0.4588  0.8883
    48 H(1)   Bbb     0.1399    74.651    26.637    24.901  0.9817 -0.1582  0.1062
              Bcc     0.1483    79.147    28.242    26.401  0.1893  0.8743 -0.4469
 
              Baa    -0.2889  -154.139   -55.001   -51.415 -0.1757  0.9746 -0.1386
    49 H(1)   Bbb     0.1402    74.820    26.697    24.957  0.8650  0.2200  0.4509
              Bcc     0.1487    79.320    28.303    26.458 -0.4699  0.0407  0.8818
 
              Baa    -0.2757  -147.107   -52.492   -49.070  0.7302  0.3950 -0.5575
    50 H(1)   Bbb     0.1284    68.492    24.440    22.847  0.6525 -0.1612  0.7404
              Bcc     0.1473    78.615    28.052    26.223 -0.2027  0.9044  0.3754
 
              Baa    -0.2865  -152.844   -54.539   -50.983 -0.5245  0.8513  0.0105
    51 H(1)   Bbb     0.1382    73.762    26.320    24.604 -0.4028 -0.2590  0.8779
              Bcc     0.1482    79.083    28.219    26.379  0.7501  0.4562  0.4788
 
              Baa    -0.2855  -152.338   -54.358   -50.814  0.3319  0.5812  0.7430
    52 H(1)   Bbb     0.1380    73.617    26.268    24.556 -0.3479 -0.6567  0.6691
              Bcc     0.1475    78.721    28.089    26.258  0.8768 -0.4806 -0.0158
 
[...]
 **** Fit       0.020674
 **** Fit       0.019055
 **** Fit       0.017922
 **** Fit       0.017244
 **** Fit       0.016955
 **** Fit       0.016976
 **** Fit       0.017232
 **** Fit       0.017672
 **** Fit       0.018294
 **** Fit       0.018691
 **** Fit       0.019783
 **** Fit       0.021250
 **** Fit       0.021819
 **** Fit       0.019726
 **** Fit       0.018198
 **** Fit       0.017137
 **** Fit       0.016468
 **** Fit       0.016131
 **** Fit       0.016063
 **** Fit       0.016200
 **** Fit       0.016481
 **** Fit       0.016861
 **** Fit       0.017327
 **** Fit       0.017910
 **** Fit       0.018149
 **** Fit       0.019146
 **** Fit       0.019535
 **** Fit       0.017894
 **** Fit       0.016722
 **** Fit       0.015928
 **** Fit       0.015459
 **** Fit       0.015271
 **** Fit       0.015309
 **** Fit       0.015513
 **** Fit       0.015823
 **** Fit       0.016188
 **** Fit       0.016579
 **** Fit       0.016997
 **** Fit       0.017485
 **** Fit       0.017535
 **** Fit       0.018295
 **** Fit       0.019614
 **** Fit       0.015357
 **** Fit       0.015745
 **** Fit       0.016117
 **** Fit       0.016456
 **** Fit       0.016764
 **** Fit       0.017086
 **** Fit       0.016899
 **** Fit       0.017301
 **** Fit       0.018267
 **** Fit       0.016768
 **** Fit       0.017711
 **** Fit       0.016147
 **** Fit       0.014934
 **** Fit       0.014048
 **** Fit       0.020828
 **** Fit       0.018605
 **** Fit       0.016904
 **** Fit       0.015481
 **** Fit       0.014254
 **** Fit       0.013236
 **** Fit       0.012488
 **** Fit       0.012084
 **** Fit       0.019326
 **** Fit       0.017711
 **** Fit       0.016288
 **** Fit       0.014955
 **** Fit       0.013696
 **** Fit       0.012558
 **** Fit       0.011617
 **** Fit       0.010955
 **** Fit       0.010641
 **** Fit       0.019964
 **** Fit       0.018553
 **** Fit       0.017227
 **** Fit       0.015886
 **** Fit       0.014496
 **** Fit       0.013086
 **** Fit       0.011739
 **** Fit       0.010573
 **** Fit       0.009697
 **** Fit       0.009190
 **** Fit       0.009100
 **** Fit       0.020009
 **** Fit       0.019148
 **** Fit       0.018151
 **** Fit       0.016995
 **** Fit       0.015656
 **** Fit       0.014137
 **** Fit       0.012501
 **** Fit       0.010876
 **** Fit       0.009422
 **** Fit       0.008288
 **** Fit       0.007567
 **** Fit       0.007296
 **** Fit       0.007488
 **** Fit       0.019401
 **** Fit       0.019261
 **** Fit       0.018667
 **** Fit       0.017715
 **** Fit       0.016420
 **** Fit       0.014783
 **** Fit       0.012855
 **** Fit       0.010786
 **** Fit       0.008798
 **** Fit       0.007125
 **** Fit       0.005934
 **** Fit       0.005282
 **** Fit       0.005145
 **** Fit       0.005500
 **** Fit       0.019634
 **** Fit       0.019615
 **** Fit       0.018936
 **** Fit       0.017707
 **** Fit       0.014995
 **** Fit       0.015606
 **** Fit       0.013216
 **** Fit       0.013851
 **** Fit       0.014569
 **** Fit       0.015300
 **** Fit       0.016027
 **** Fit       0.011890
 **** Fit       0.012567
 **** Fit       0.013386
 **** Fit       0.014253
 **** Fit       0.015111
 **** Fit       0.015964
 **** Fit       0.010597
 **** Fit       0.011441
 **** Fit       0.012463
 **** Fit       0.013553
 **** Fit       0.014637
 **** Fit       0.015671
 **** Fit       0.008981
 **** Fit       0.010010
 **** Fit       0.011265
 **** Fit       0.012624
 **** Fit       0.014022
 **** Fit       0.006553
 **** Fit       0.007680
 **** Fit       0.009189
 **** Fit       0.010888
 **** Fit       0.012686
 **** Fit       0.019204
 **** Fit       0.019018
 **** Fit       0.019377
 **** Fit       0.019592
 **** Fit       0.018734
 **** Fit       0.018920
 **** Fit       0.019289
 **** Fit       0.019714
 **** Fit       0.020047
 **** Fit       0.020155
 **** Fit       0.018617
 **** Fit       0.018642
 **** Fit       0.018867
 **** Fit       0.019228
 **** Fit       0.019668
 **** Fit       0.020147
 **** Fit       0.020609
 **** Fit       0.020926
 **** Fit       0.020974
 **** Fit       0.018527
 **** Fit       0.018693
 **** Fit       0.019005
 **** Fit       0.019410
 **** Fit       0.019881
 **** Fit       0.020421
 **** Fit       0.021036
 **** Fit       0.021676
 **** Fit       0.022153
 **** Fit       0.022232
 **** Fit       0.018503
 **** Fit       0.018478
 **** Fit       0.018660
 **** Fit       0.018982
 **** Fit       0.019391
 **** Fit       0.019861
 **** Fit       0.020403
 **** Fit       0.021066
 **** Fit       0.021917
 **** Fit       0.018459
 **** Fit       0.018443
 **** Fit       0.018634
 **** Fit       0.018957
 **** Fit       0.019360
 **** Fit       0.019815
 **** Fit       0.020321
 **** Fit       0.020923
 **** Fit       0.021727
 **** Fit       0.018451
 **** Fit       0.018412
 **** Fit       0.018608
 **** Fit       0.018948
 **** Fit       0.019370
 **** Fit       0.019839
 **** Fit       0.020342
 **** Fit       0.020906
 **** Fit       0.018397
 **** Fit       0.018599
 **** Fit       0.018954
 **** Fit       0.019395
 **** Fit       0.019880
 **** Fit       0.020386
 **** Fit       0.020899
 **** Fit       0.018389
 **** Fit       0.018476
 **** Fit       0.018784
 **** Fit       0.019223
 **** Fit       0.019736
 **** Fit       0.020285
 **** Fit       0.020837
 **** Fit       0.018635
 **** Fit       0.019074
 **** Fit       0.019642
 **** Fit       0.020295
 **** Fit       0.018652
 **** Fit       0.019174
 **** Fit       0.019874
 **** Fit       0.020732
 **** Fit       0.019193
 **** Fit       0.020046
 **** Fit       0.017885
 **** Fit       0.017725
 **** Fit       0.017609
 **** Fit       0.017792
 **** Fit       0.018144
 **** Fit       0.018275
 **** Fit       0.018035
 **** Fit       0.017603
 **** Fit       0.017438
 **** Fit       0.017397
 **** Fit       0.017508
 **** Fit       0.017780
 **** Fit       0.018858
 **** Fit       0.018606
 **** Fit       0.018232
 **** Fit       0.017874
 **** Fit       0.017471
 **** Fit       0.017307
 **** Fit       0.017219
 **** Fit       0.017217
 **** Fit       0.017321
 **** Fit       0.017545
 **** Fit       0.019418
 **** Fit       0.018956
 **** Fit       0.018470
 **** Fit       0.018045
 **** Fit       0.017713
 **** Fit       0.017289
 **** Fit       0.017131
 **** Fit       0.017039
 **** Fit       0.017015
 **** Fit       0.017069
 **** Fit       0.017220
 **** Fit       0.017485
 **** Fit       0.019523
 **** Fit       0.018848
 **** Fit       0.018280
 **** Fit       0.017842
 **** Fit       0.017520
 **** Fit       0.017025
 **** Fit       0.016876
 **** Fit       0.016796
 **** Fit       0.016783
 **** Fit       0.016844
 **** Fit       0.016989
 **** Fit       0.017240
 **** Fit       0.017618
 **** Fit       0.020500
 **** Fit       0.019489
 **** Fit       0.018657
 **** Fit       0.018030
 **** Fit       0.017575
 **** Fit       0.017251
 **** Fit       0.016651
 **** Fit       0.016519
 **** Fit       0.016461
 **** Fit       0.016477
 **** Fit       0.016568
 **** Fit       0.016741
 **** Fit       0.017008
 **** Fit       0.017391
 **** Fit       0.020385
 **** Fit       0.019163
 **** Fit       0.018267
 **** Fit       0.017629
 **** Fit       0.017179
 **** Fit       0.016865
 **** Fit       0.016140
 **** Fit       0.016027
 **** Fit       0.016006
 **** Fit       0.016080
 **** Fit       0.016253
 **** Fit       0.016524
 **** Fit       0.016899
 **** Fit       0.017399
 **** Fit       0.020373
 **** Fit       0.018869
 **** Fit       0.017846
 **** Fit       0.017147
 **** Fit       0.016671
 **** Fit       0.016349
 **** Fit       0.015459
 **** Fit       0.015373
 **** Fit       0.015402
 **** Fit       0.015557
 **** Fit       0.015843
 **** Fit       0.016259
 **** Fit       0.016796
 **** Fit       0.017461
 **** Fit       0.018195
 **** Fit       0.017133
 **** Fit       0.016429
 **** Fit       0.015961
 **** Fit       0.015651
 **** Fit       0.014556
 **** Fit       0.014503
 **** Fit       0.014600
 **** Fit       0.014877
 **** Fit       0.015349
 **** Fit       0.016009
 **** Fit       0.016831
 **** Fit       0.017194
 **** Fit       0.016126
 **** Fit       0.015449
 **** Fit       0.015013
 **** Fit       0.014728
 **** Fit       0.013344
 **** Fit       0.014109
 **** Fit       0.013750
 **** Fit       0.013503
 **** Fit       0.017903
 **** Fit       0.017908
 **** Fit       0.018017
 **** Fit       0.017858
 **** Fit       0.017789
 **** Fit       0.017782
 **** Fit       0.017801
 **** Fit       0.017861
 **** Fit       0.018022
 **** Fit       0.017908
 **** Fit       0.017810
 **** Fit       0.017794
 **** Fit       0.017798
 **** Fit       0.017797
 **** Fit       0.017793
 **** Fit       0.017817
 **** Fit       0.017934
 **** Fit       0.018059
 **** Fit       0.017918
 **** Fit       0.017883
 **** Fit       0.017887
 **** Fit       0.017892
 **** Fit       0.017878
 **** Fit       0.017843
 **** Fit       0.017802
 **** Fit       0.017788
 **** Fit       0.017862
 **** Fit       0.018121
 **** Fit       0.018265
 **** Fit       0.018104
 **** Fit       0.018047
 **** Fit       0.018034
 **** Fit       0.018029
 **** Fit       0.018008
 **** Fit       0.017961
 **** Fit       0.017891
 **** Fit       0.017812
 **** Fit       0.017758
 **** Fit       0.017784
 **** Fit       0.017978
 **** Fit       0.018653
 **** Fit       0.018430
 **** Fit       0.018307
 **** Fit       0.018239
 **** Fit       0.018195
 **** Fit       0.018151
 **** Fit       0.018091
 **** Fit       0.018009
 **** Fit       0.017907
 **** Fit       0.017801
 **** Fit       0.017719
 **** Fit       0.017709
 **** Fit       0.017845
 **** Fit       0.018659
 **** Fit       0.018488
 **** Fit       0.018366
 **** Fit       0.018268
 **** Fit       0.018173
 **** Fit       0.018068
 **** Fit       0.017949
 **** Fit       0.017823
 **** Fit       0.017706
 **** Fit       0.017632
 **** Fit       0.017650
 **** Fit       0.017833
 **** Fit       0.018641
 **** Fit       0.018417
 **** Fit       0.018248
 **** Fit       0.018104
 **** Fit       0.017965
 **** Fit       0.017824
 **** Fit       0.017687
 **** Fit       0.017572
 **** Fit       0.017516
 **** Fit       0.017571
 **** Fit       0.018197
 **** Fit       0.017984
 **** Fit       0.017815
 **** Fit       0.017664
 **** Fit       0.017525
 **** Fit       0.017410
 **** Fit       0.017346
 **** Fit       0.017377
 **** Fit       0.017292
 **** Fit       0.017180
 **** Fit       0.017090
 **** Fit       0.017040
 **** Fit       0.017058
 **** Fit       0.016464
 **** Fit       0.016479
 **** Fit       0.012778
 **** Fit       0.012951
 **** Fit       0.013290
 **** Fit       0.012998
 **** Fit       0.013132
 **** Fit       0.013462
 **** Fit       0.013929
 **** Fit       0.014509
 **** Fit       0.015209
 **** Fit       0.016061
 **** Fit       0.012872
 **** Fit       0.013103
 **** Fit       0.013497
 **** Fit       0.014013
 **** Fit       0.014638
 **** Fit       0.015386
 **** Fit       0.016290
 **** Fit       0.017391
 **** Fit       0.018668
 **** Fit       0.012554
 **** Fit       0.012825
 **** Fit       0.013228
 **** Fit       0.013727
 **** Fit       0.014312
 **** Fit       0.014989
 **** Fit       0.015777
 **** Fit       0.016696
 **** Fit       0.017729
 **** Fit       0.018747
 **** Fit       0.011987
 **** Fit       0.012174
 **** Fit       0.012493
 **** Fit       0.012903
 **** Fit       0.013377
 **** Fit       0.013905
 **** Fit       0.014483
 **** Fit       0.015110
 **** Fit       0.015769
 **** Fit       0.016395
 **** Fit       0.016860
 **** Fit       0.017018
 **** Fit       0.011408
 **** Fit       0.011603
 **** Fit       0.011908
 **** Fit       0.012279
 **** Fit       0.012682
 **** Fit       0.013097
 **** Fit       0.013501
 **** Fit       0.013864
 **** Fit       0.014131
 **** Fit       0.014220
 **** Fit       0.014067
 **** Fit       0.013716
 **** Fit       0.010763
 **** Fit       0.010971
 **** Fit       0.011243
 **** Fit       0.011529
 **** Fit       0.011785
 **** Fit       0.011972
 **** Fit       0.012038
 **** Fit       0.011923
 **** Fit       0.011570
 **** Fit       0.010977
 **** Fit       0.009941
 **** Fit       0.010084
 **** Fit       0.010227
 **** Fit       0.010307
 **** Fit       0.010266
 **** Fit       0.010046
 **** Fit       0.009589
 **** Fit       0.008861
 **** Fit       0.007879
 **** Fit       0.008833
 **** Fit       0.008813
 **** Fit       0.008700
 **** Fit       0.008404
 **** Fit       0.007847
 **** Fit       0.006967
 **** Fit       0.005732
 **** Fit       0.007331
 **** Fit       0.006986
 **** Fit       0.006393
 **** Fit       0.005444
 **** Fit       0.012825
 **** Fit       0.013092
 **** Fit       0.011019
 **** Fit       0.011498
 **** Fit       0.011971
 **** Fit       0.012385
 **** Fit       0.012708
 **** Fit       0.012918
 **** Fit       0.012990
 **** Fit       0.012879
 **** Fit       0.009315
 **** Fit       0.009713
 **** Fit       0.010235
 **** Fit       0.010785
 **** Fit       0.011305
 **** Fit       0.011763
 **** Fit       0.012142
 **** Fit       0.012437
 **** Fit       0.012645
 **** Fit       0.012765
 **** Fit       0.012785
 **** Fit       0.012677
 **** Fit       0.007280
 **** Fit       0.007557
 **** Fit       0.008116
 **** Fit       0.008793
 **** Fit       0.009488
 **** Fit       0.010144
 **** Fit       0.010732
 **** Fit       0.011238
 **** Fit       0.011662
 **** Fit       0.012012
 **** Fit       0.012300
 **** Fit       0.012546
 **** Fit       0.004646
 **** Fit       0.005282
 **** Fit       0.006131
 **** Fit       0.007043
 **** Fit       0.007934
 **** Fit       0.008760
 **** Fit       0.009500
 **** Fit       0.010146
 **** Fit       0.010703
 **** Fit       0.011181
 **** Fit       0.011600
 **** Fit       0.011986
 **** Fit       0.002552
 **** Fit       0.003862
 **** Fit       0.005125
 **** Fit       0.006290
 **** Fit       0.007337
 **** Fit       0.008260
 **** Fit       0.009066
 **** Fit       0.009765
 **** Fit       0.010375
 **** Fit       0.010918
 **** Fit       0.001609
 **** Fit       0.003365
 **** Fit       0.004895
 **** Fit       0.006220
 **** Fit       0.007365
 **** Fit       0.008351
 **** Fit       0.009205
 **** Fit      -0.000403
 **** Fit       0.001964
 **** Fit       0.003821
 **** Fit       0.005288
 **** Fit       0.006446
 **** Fit       0.007361
 **** Fit       0.008084
 **** Fit       0.008662
 **** Fit      -0.009868
 **** Fit      -0.005222
 **** Fit      -0.001780
 **** Fit       0.000839
 **** Fit       0.002860
 **** Fit       0.004430
 **** Fit       0.005646
 **** Fit       0.006581
 **** Fit       0.007292
 **** Fit       0.007827
 **** Fit       0.008231
 **** Fit       0.008554
 **** Fit      -0.011000
 **** Fit      -0.006051
 **** Fit      -0.002423
 **** Fit       0.000301
 **** Fit       0.002370
 **** Fit       0.003942
 **** Fit       0.005125
 **** Fit       0.005997
 **** Fit       0.006617
 **** Fit       0.007035
 **** Fit       0.007296
 **** Fit       0.007439
 **** Fit      -0.011457
 **** Fit      -0.006502
 **** Fit      -0.002867
 **** Fit      -0.000157
 **** Fit       0.001873
 **** Fit       0.003382
 **** Fit       0.004477
 **** Fit       0.005236
 **** Fit       0.005718
 **** Fit       0.005967
 **** Fit       0.006017
 **** Fit       0.005890
 **** Fit       0.005581
 **** Fit      -0.016759
 **** Fit      -0.010259
 **** Fit      -0.005601
 **** Fit      -0.002220
 **** Fit       0.000240
 **** Fit       0.002005
 **** Fit       0.003224
 **** Fit       0.003999
 **** Fit       0.004402
 **** Fit       0.004479
 **** Fit       0.004254
 **** Fit       0.003718
 **** Fit       0.002816
 **** Fit      -0.014554
 **** Fit      -0.008786
 **** Fit      -0.004638
 **** Fit      -0.001688
 **** Fit       0.000356
 **** Fit       0.001687
 **** Fit       0.002432
 **** Fit       0.002673
 **** Fit       0.002446
 **** Fit       0.001745
 **** Fit       0.000495
 **** Fit      -0.001464
 **** Fit      -0.004422
 **** Fit      -0.018311
 **** Fit      -0.011618
 **** Fit      -0.006729
 **** Fit      -0.003347
 **** Fit      -0.001164
 **** Fit       0.000047
 **** Fit       0.000428
 **** Fit       0.000039
 **** Fit      -0.001157
 **** Fit      -0.003315
 **** Fit      -0.006751
 **** Fit      -0.011938
 **** Fit      -0.013814
 **** Fit      -0.008215
 **** Fit      -0.004562
 **** Fit      -0.002727
 **** Fit      -0.002509
 **** Fit      -0.003867
 **** Fit      -0.006993
 **** Fit      -0.012197
 **** Fit      -0.015369
 **** Fit      -0.009625
 **** Fit      -0.006270
 **** Fit      -0.007060
 **** Fit      -0.011771
 **** Fit      -0.016926
 **** Fit      -0.010857
 -----------------------------------------------------------------
 Leave Link  602 at Wed Jun  8 19:18:46 2016, MaxMem=    6291456 cpu:      16.5

 Test job not archived.
 1\1\GINC-COMPUTE-2-8\FOpt\RHF\6-31G(d)\C23H25Cl1N4O2S1\DAVE\08-Jun-201
 6\0\\#HF/6-31G* SCF=tight Test Pop=MK iop(6/33=2) iop(6/42=6) opt\\rem
 ark line goes here\\0,1\C,-0.3626476086,7.1227817451,-6.8348356886\C,4
 .3672210063,10.8714971572,-7.447703685\C,3.8990517773,10.8179613091,-1
 0.5589793184\C,0.0781746625,13.3708757536,-14.0342132931\C,-1.98764889
 76,14.6469744157,-13.3070238565\C,0.0808591113,14.6714380684,-11.89010
 65352\O,-2.3744000081,11.6567401286,-13.5919296766\Cl,4.5391808633,6.6
 148725077,-15.2954328949\C,3.7515071685,7.1534048189,-12.7656850471\C,
 2.6007669008,8.3366856954,-14.5177188624\C,2.9763604537,7.812282486,-1
 1.8251580659\C,1.8263880104,8.9785904419,-13.5709592727\C,-2.232672761
 5,10.7266067849,-11.3996124058\N,-0.0444967958,9.6824620316,-11.562672
 7016\N,-2.2184220259,7.8675844315,-8.2686308612\N,-2.4257228361,8.7339
 003089,-9.3069950239\O,-1.1768751013,12.7223520742,-12.0416813367\S,1.
 8402028016,9.6901355041,-7.2746141707\C,-1.9386110914,11.7341653741,-1
 2.4890696051\C,1.1309397416,9.4062464689,-11.2074471008\C,3.5604792447
 ,7.4273114621,-14.1056174099\C,-0.9887944536,7.9327824347,-7.921236602
 1\C,2.0109468199,8.7321262331,-12.2132510662\C,3.1784935632,10.3233616
 768,-8.1902683685\C,2.9568156548,10.261146827,-9.5176363135\C,-1.31570
 0276,9.3045112509,-9.5636135184\C,1.6722692908,9.6511994223,-9.8357516
 675\C,0.9771734398,9.3169276303,-8.7262392396\C,-0.983092401,10.300265
 0714,-10.6350462876\N,-0.3370159129,8.8474232484,-8.7155117756\C,-0.76
 71221837,13.8479132906,-12.8550189079\H,-0.5313960169,11.1685390357,-1
 0.1653098805\H,-2.9425807846,11.1755735609,-10.7128237789\H,-2.7036007
 647,9.8708349813,-11.857829197\H,1.0670028896,9.6702547759,-13.8804988
 853\H,3.1246598181,7.5912137674,-10.7841178486\H,2.4603347096,8.534441
 5065,-15.5631960197\H,4.4894519915,6.4362948942,-12.460534989\H,-0.506
 0751715,14.9742402813,-11.0303853776\H,0.9276448005,14.0927660269,-11.
 5375651992\H,0.4548533442,15.5623490008,-12.3826905254\H,-2.5958430026
 ,14.0854302491,-14.0005287251\H,-2.5951206371,14.920516804,-12.4504839
 771\H,-1.661653119,15.5606765755,-13.7936435743\H,0.8986379224,12.7540
 910147,-13.6813295167\H,-0.5087428133,12.8004337116,-14.7387559678\H,0
 .4990991708,14.2289337414,-14.5484552799\H,4.5146854537,11.6025699195,
 -10.1393491322\H,4.5536948181,10.0558327711,-10.9659808879\H,3.3475993
 635,11.2456853855,-11.3875840153\H,5.2487634653,10.8695055876,-8.07453
 5177\H,4.1892482389,11.8894191184,-7.1141058928\H,4.5875061512,10.2715
 794423,-6.571841955\H,0.5335884869,6.621101898,-7.1818589391\H,-0.0984
 813752,7.7334131187,-5.9787566874\H,-1.0828850968,6.3817767783,-6.5191
 780121\\Version=AM64L-G03RevD.02\State=1-A\HF=-2110.0389452\RMSD=9.905
 e-09\RMSF=1.181e-06\Thermal=0.\Dipole=2.8734563,1.4364525,1.4932256\PG
 =C01 [X(C23H25Cl1N4O2S1)]\\@


 The most important thing in communication is to hear what isn't being said.
 -- Peter F. Drucker
 Job cpu time:  0 days 10 hours  8 minutes 47.2 seconds.
 File lengths (MBytes):  RWF=    180 Int=      0 D2E=      0 Chk=     25 Scr=      1
 Normal termination of Gaussian 03 at Wed Jun  8 19:18:46 2016.
