 Entering Gaussian System, Link 0=/share/apps/g03/g03
 Initial command:
 /share/apps//g03/l1.exe /state/partition1/mmpbsa.11/Gau-21611.inp -scrdir=/state/partition1/mmpbsa.11/
 Entering Link 1 = /share/apps//g03/l1.exe PID=     21613.
  
 Copyright (c) 1988,1990,1992,1993,1995,1998,2003,2004, Gaussian, Inc.
                  All Rights Reserved.
  
 This is the Gaussian(R) 03 program.  It is based on the
 the Gaussian(R) 98 system (copyright 1998, Gaussian, Inc.),
 the Gaussian(R) 94 system (copyright 1995, Gaussian, Inc.),
 the Gaussian 92(TM) system (copyright 1992, Gaussian, Inc.),
 the Gaussian 90(TM) system (copyright 1990, Gaussian, Inc.),
 the Gaussian 88(TM) system (copyright 1988, Gaussian, Inc.),
 the Gaussian 86(TM) system (copyright 1986, Carnegie Mellon
 University), and the Gaussian 82(TM) system (copyright 1983,
 Carnegie Mellon University). Gaussian is a federally registered
 trademark of Gaussian, Inc.
  
 This software contains proprietary and confidential information,
 including trade secrets, belonging to Gaussian, Inc.
  
 This software is provided under written license and may be
 used, copied, transmitted, or stored only in accord with that
 written license.
  
 The following legend is applicable only to US Government
 contracts under FAR:
  
                    RESTRICTED RIGHTS LEGEND
  
 Use, reproduction and disclosure by the US Government is
 subject to restrictions as set forth in subparagraphs (a)
 and (c) of the Commercial Computer Software - Restricted
 Rights clause in FAR 52.227-19.
  
 Gaussian, Inc.
 340 Quinnipiac St., Bldg. 40, Wallingford CT 06492
  
  
 ---------------------------------------------------------------
 Warning -- This program may not be used in any manner that
 competes with the business of Gaussian, Inc. or will provide
 assistance to any competitor of Gaussian, Inc.  The licensee
 of this program is prohibited from giving any competitor of
 Gaussian, Inc. access to this program.  By using this program,
 the user acknowledges that Gaussian, Inc. is engaged in the
 business of creating and licensing software in the field of
 computational chemistry and represents and warrants to the
 licensee that it is not a competitor of Gaussian, Inc. and that
 it will not use this program in any manner prohibited above.
 ---------------------------------------------------------------
  

 Cite this work as:
 Gaussian 03, Revision D.02,
 M. J. Frisch, G. W. Trucks, H. B. Schlegel, G. E. Scuseria, 
 M. A. Robb, J. R. Cheeseman, J. A. Montgomery, Jr., T. Vreven, 
 K. N. Kudin, J. C. Burant, J. M. Millam, S. S. Iyengar, J. Tomasi, 
 V. Barone, B. Mennucci, M. Cossi, G. Scalmani, N. Rega, 
 G. A. Petersson, H. Nakatsuji, M. Hada, M. Ehara, K. Toyota, 
 R. Fukuda, J. Hasegawa, M. Ishida, T. Nakajima, Y. Honda, O. Kitao, 
 H. Nakai, M. Klene, X. Li, J. E. Knox, H. P. Hratchian, J. B. Cross, 
 V. Bakken, C. Adamo, J. Jaramillo, R. Gomperts, R. E. Stratmann, 
 O. Yazyev, A. J. Austin, R. Cammi, C. Pomelli, J. W. Ochterski, 
 P. Y. Ayala, K. Morokuma, G. A. Voth, P. Salvador, J. J. Dannenberg, 
 V. G. Zakrzewski, S. Dapprich, A. D. Daniels, M. C. Strain, 
 O. Farkas, D. K. Malick, A. D. Rabuck, K. Raghavachari, 
 J. B. Foresman, J. V. Ortiz, Q. Cui, A. G. Baboul, S. Clifford, 
 J. Cioslowski, B. B. Stefanov, G. Liu, A. Liashenko, P. Piskorz, 
 I. Komaromi, R. L. Martin, D. J. Fox, T. Keith, M. A. Al-Laham, 
 C. Y. Peng, A. Nanayakkara, M. Challacombe, P. M. W. Gill, 
 B. Johnson, W. Chen, M. W. Wong, C. Gonzalez, and J. A. Pople, 
 Gaussian, Inc., Wallingford CT, 2004.
 
 ******************************************
 Gaussian 03:  AM64L-G03RevD.02  1-Mar-2006
                 8-Jun-2016 
 ******************************************
 %chk=molecule
 ------------------------------------------------------------
 #HF/6-31G* SCF=tight Test Pop=MK iop(6/33=2) iop(6/42=6) opt
 ------------------------------------------------------------
 1/18=20,38=1/1,3;
 2/9=110,17=6,18=5,40=1/2;
 3/5=1,6=6,7=1,11=9,16=1,25=1,30=1/1,2,3;
 4//1;
 5/5=2,32=2,38=5/2;
 6/7=2,8=2,9=2,10=2,15=8,20=1,28=1,33=2,42=6/1,2;
 7//1,2,3,16;
 1/18=20/3(3);
 2/9=110/2;
 6/7=2,8=2,9=2,10=2,15=8,19=2,20=1,28=1,33=2,42=6/1,2;
 99//99;
 2/9=110/2;
 3/5=1,6=6,7=1,11=9,16=1,25=1,30=1/1,2,3;
 4/5=5,16=3/1;
 5/5=2,32=2,38=5/2;
 7//1,2,3,16;
 1/18=20/3(-5);
 2/9=110/2;
 6/7=2,8=2,9=2,10=2,15=8,19=2,20=1,28=1,33=2,42=6/1,2;
 99/9=1/99;
 ---------------------
 remark line goes here
 ---------------------
 Symbolic Z-matrix:
 Charge =  0 Multiplicity = 1
 C                     1.349     9.727    -9.653 
 C                     2.617     10.318   -9.521 
 C                     3.171     10.401   -8.25 
 Cl                    4.743     11.122   -8.032 
 C                     2.549     9.892    -7.103 
 C                     1.283     9.298    -7.248 
 C                     0.715     9.211    -8.513 
 N                    -0.535     8.608    -8.521 
 C                    -1.027     7.536    -7.845 
 C                    -0.284     6.597    -6.876 
 N                    -2.305     7.349    -8.181 
 N                    -2.657     8.27     -9.005 
 C                    -1.577     9.053    -9.234 
 C                    -1.494     10.19    -10.203 
 N                    -0.508     9.734    -11.219 
 C                     0.822     9.671    -10.98 
 C                     1.623     9.2      -12.086 
 C                     2.803     8.494    -11.87 
 C                     3.547     7.967    -12.927 
 C                     3.16      8.168    -14.249 
 C                     2.        8.883    -14.468 
 C                     1.253     9.395    -13.411 
 H                     0.356     9.962    -13.628 
 H                     1.663     9.049    -15.485 
 H                     3.747     7.779    -15.074 
 H                     4.442     7.392    -12.715 
 H                     3.152     8.348    -10.854 
 H                    -2.473     10.379   -10.668 
 H                    -1.143     11.105   -9.702 
 H                     0.549     6.11     -7.404 
 H                     0.108     7.179    -6.03 
 H                    -0.979     5.831    -6.503 
 H                     0.756     8.913    -6.382 
 H                     3.03      9.955    -6.133 
 H                     3.147     10.697   -10.387 
 

 GradGradGradGradGradGradGradGradGradGradGradGradGradGradGradGradGradGrad
 Berny optimization.
 Initialization pass.
                           ----------------------------
                           !    Initial Parameters    !
                           ! (Angstroms and Degrees)  !
 --------------------------                            --------------------------
 ! Name  Definition              Value          Derivative Info.                !
 --------------------------------------------------------------------------------
 ! R1    R(1,2)                  1.4052         estimate D2E/DX2                !
 ! R2    R(1,7)                  1.4028         estimate D2E/DX2                !
 ! R3    R(1,16)                 1.4289         estimate D2E/DX2                !
 ! R4    R(2,3)                  1.389          estimate D2E/DX2                !
 ! R5    R(2,35)                 1.0837         estimate D2E/DX2                !
 ! R6    R(3,4)                  1.7431         estimate D2E/DX2                !
 ! R7    R(3,5)                  1.4006         estimate D2E/DX2                !
 ! R8    R(5,6)                  1.4059         estimate D2E/DX2                !
 ! R9    R(5,34)                 1.0845         estimate D2E/DX2                !
 ! R10   R(6,7)                  1.3894         estimate D2E/DX2                !
 ! R11   R(6,33)                 1.0844         estimate D2E/DX2                !
 ! R12   R(7,8)                  1.3879         estimate D2E/DX2                !
 ! R13   R(8,9)                  1.3595         estimate D2E/DX2                !
 ! R14   R(8,13)                 1.3387         estimate D2E/DX2                !
 ! R15   R(9,10)                 1.5404         estimate D2E/DX2                !
 ! R16   R(9,11)                 1.3346         estimate D2E/DX2                !
 ! R17   R(10,30)                1.0999         estimate D2E/DX2                !
 ! R18   R(10,31)                1.0991         estimate D2E/DX2                !
 ! R19   R(10,32)                1.0995         estimate D2E/DX2                !
 ! R20   R(11,12)                1.285          estimate D2E/DX2                !
 ! R21   R(12,13)                1.3535         estimate D2E/DX2                !
 ! R22   R(13,14)                1.4962         estimate D2E/DX2                !
 ! R23   R(14,15)                1.4874         estimate D2E/DX2                !
 ! R24   R(14,28)                1.1002         estimate D2E/DX2                !
 ! R25   R(14,29)                1.1006         estimate D2E/DX2                !
 ! R26   R(15,16)                1.3528         estimate D2E/DX2                !
 ! R27   R(16,17)                1.4445         estimate D2E/DX2                !
 ! R28   R(17,18)                1.3919         estimate D2E/DX2                !
 ! R29   R(17,22)                1.3894         estimate D2E/DX2                !
 ! R30   R(18,19)                1.3959         estimate D2E/DX2                !
 ! R31   R(18,27)                1.0841         estimate D2E/DX2                !
 ! R32   R(19,20)                1.3921         estimate D2E/DX2                !
 ! R33   R(19,26)                1.0847         estimate D2E/DX2                !
 ! R34   R(20,21)                1.3801         estimate D2E/DX2                !
 ! R35   R(20,25)                1.0847         estimate D2E/DX2                !
 ! R36   R(21,22)                1.3919         estimate D2E/DX2                !
 ! R37   R(21,24)                1.0842         estimate D2E/DX2                !
 ! R38   R(22,23)                1.0831         estimate D2E/DX2                !
 ! A1    A(2,1,7)              119.0913         estimate D2E/DX2                !
 ! A2    A(2,1,16)             115.8826         estimate D2E/DX2                !
 ! A3    A(7,1,16)             125.0019         estimate D2E/DX2                !
 ! A4    A(1,2,3)              118.0999         estimate D2E/DX2                !
 ! A5    A(1,2,35)             120.8855         estimate D2E/DX2                !
 ! A6    A(3,2,35)             121.0146         estimate D2E/DX2                !
 ! A7    A(2,3,4)              119.924          estimate D2E/DX2                !
 ! A8    A(2,3,5)              123.4045         estimate D2E/DX2                !
 ! A9    A(4,3,5)              116.6414         estimate D2E/DX2                !
 ! A10   A(3,5,6)              117.9689         estimate D2E/DX2                !
 ! A11   A(3,5,34)             120.9567         estimate D2E/DX2                !
 ! A12   A(6,5,34)             121.0745         estimate D2E/DX2                !
 ! A13   A(5,6,7)              119.2408         estimate D2E/DX2                !
 ! A14   A(5,6,33)             120.3484         estimate D2E/DX2                !
 ! A15   A(7,6,33)             120.4107         estimate D2E/DX2                !
 ! A16   A(1,7,6)              122.1481         estimate D2E/DX2                !
 ! A17   A(1,7,8)              124.2078         estimate D2E/DX2                !
 ! A18   A(6,7,8)              113.6191         estimate D2E/DX2                !
 ! A19   A(7,8,9)              131.7347         estimate D2E/DX2                !
 ! A20   A(7,8,13)             124.0339         estimate D2E/DX2                !
 ! A21   A(9,8,13)             104.1971         estimate D2E/DX2                !
 ! A22   A(8,9,10)             128.2374         estimate D2E/DX2                !
 ! A23   A(8,9,11)             109.3812         estimate D2E/DX2                !
 ! A24   A(10,9,11)            122.3343         estimate D2E/DX2                !
 ! A25   A(9,10,30)            109.4646         estimate D2E/DX2                !
 ! A26   A(9,10,31)            109.4774         estimate D2E/DX2                !
 ! A27   A(9,10,32)            109.4633         estimate D2E/DX2                !
 ! A28   A(30,10,31)           109.5011         estimate D2E/DX2                !
 ! A29   A(30,10,32)           109.4567         estimate D2E/DX2                !
 ! A30   A(31,10,32)           109.4641         estimate D2E/DX2                !
 ! A31   A(9,11,12)            108.8649         estimate D2E/DX2                !
 ! A32   A(11,12,13)           107.7315         estimate D2E/DX2                !
 ! A33   A(8,13,12)            109.7959         estimate D2E/DX2                !
 ! A34   A(8,13,14)            123.6666         estimate D2E/DX2                !
 ! A35   A(12,13,14)           126.403          estimate D2E/DX2                !
 ! A36   A(13,14,15)           104.2517         estimate D2E/DX2                !
 ! A37   A(13,14,28)           110.7883         estimate D2E/DX2                !
 ! A38   A(13,14,29)           110.7714         estimate D2E/DX2                !
 ! A39   A(15,14,28)           110.7227         estimate D2E/DX2                !
 ! A40   A(15,14,29)           110.7558         estimate D2E/DX2                !
 ! A41   A(28,14,29)           109.4724         estimate D2E/DX2                !
 ! A42   A(14,15,16)           123.0476         estimate D2E/DX2                !
 ! A43   A(1,16,15)            121.6583         estimate D2E/DX2                !
 ! A44   A(1,16,17)            121.2858         estimate D2E/DX2                !
 ! A45   A(15,16,17)           115.1561         estimate D2E/DX2                !
 ! A46   A(16,17,18)           121.1072         estimate D2E/DX2                !
 ! A47   A(16,17,22)           122.4602         estimate D2E/DX2                !
 ! A48   A(18,17,22)           116.4178         estimate D2E/DX2                !
 ! A49   A(17,18,19)           121.7236         estimate D2E/DX2                !
 ! A50   A(17,18,27)           119.1191         estimate D2E/DX2                !
 ! A51   A(19,18,27)           119.1571         estimate D2E/DX2                !
 ! A52   A(18,19,20)           121.0925         estimate D2E/DX2                !
 ! A53   A(18,19,26)           119.4663         estimate D2E/DX2                !
 ! A54   A(20,19,26)           119.4412         estimate D2E/DX2                !
 ! A55   A(19,20,21)           117.3327         estimate D2E/DX2                !
 ! A56   A(19,20,25)           121.3378         estimate D2E/DX2                !
 ! A57   A(21,20,25)           121.3296         estimate D2E/DX2                !
 ! A58   A(20,21,22)           121.4085         estimate D2E/DX2                !
 ! A59   A(20,21,24)           119.3031         estimate D2E/DX2                !
 ! A60   A(22,21,24)           119.2884         estimate D2E/DX2                !
 ! A61   A(17,22,21)           121.9806         estimate D2E/DX2                !
 ! A62   A(17,22,23)           119.0158         estimate D2E/DX2                !
 ! A63   A(21,22,23)           119.0036         estimate D2E/DX2                !
 ! D1    D(7,1,2,3)             -1.9361         estimate D2E/DX2                !
 ! D2    D(7,1,2,35)           178.0061         estimate D2E/DX2                !
 ! D3    D(16,1,2,3)           179.7641         estimate D2E/DX2                !
 ! D4    D(16,1,2,35)           -0.2937         estimate D2E/DX2                !
 ! D5    D(2,1,7,6)              1.8483         estimate D2E/DX2                !
 ! D6    D(2,1,7,8)            179.914          estimate D2E/DX2                !
 ! D7    D(16,1,7,6)           179.9809         estimate D2E/DX2                !
 ! D8    D(16,1,7,8)            -1.9534         estimate D2E/DX2                !
 ! D9    D(2,1,16,15)         -148.8051         estimate D2E/DX2                !
 ! D10   D(2,1,16,17)           47.6445         estimate D2E/DX2                !
 ! D11   D(7,1,16,15)           33.0087         estimate D2E/DX2                !
 ! D12   D(7,1,16,17)         -130.5417         estimate D2E/DX2                !
 ! D13   D(1,2,3,4)            179.8698         estimate D2E/DX2                !
 ! D14   D(1,2,3,5)              1.9319         estimate D2E/DX2                !
 ! D15   D(35,2,3,4)            -0.0723         estimate D2E/DX2                !
 ! D16   D(35,2,3,5)          -178.0102         estimate D2E/DX2                !
 ! D17   D(2,3,5,6)             -1.6795         estimate D2E/DX2                !
 ! D18   D(2,3,5,34)           178.3427         estimate D2E/DX2                !
 ! D19   D(4,3,5,6)           -179.6801         estimate D2E/DX2                !
 ! D20   D(4,3,5,34)             0.3421         estimate D2E/DX2                !
 ! D21   D(3,5,6,7)              1.4418         estimate D2E/DX2                !
 ! D22   D(3,5,6,33)          -178.5123         estimate D2E/DX2                !
 ! D23   D(34,5,6,7)          -178.5805         estimate D2E/DX2                !
 ! D24   D(34,5,6,33)            1.4654         estimate D2E/DX2                !
 ! D25   D(5,6,7,1)             -1.5968         estimate D2E/DX2                !
 ! D26   D(5,6,7,8)           -179.8509         estimate D2E/DX2                !
 ! D27   D(33,6,7,1)           178.3573         estimate D2E/DX2                !
 ! D28   D(33,6,7,8)             0.1032         estimate D2E/DX2                !
 ! D29   D(1,7,8,9)            141.5726         estimate D2E/DX2                !
 ! D30   D(1,7,8,13)           -40.9067         estimate D2E/DX2                !
 ! D31   D(6,7,8,9)            -40.2148         estimate D2E/DX2                !
 ! D32   D(6,7,8,13)           137.3059         estimate D2E/DX2                !
 ! D33   D(7,8,9,10)            -3.2107         estimate D2E/DX2                !
 ! D34   D(7,8,9,11)           179.2695         estimate D2E/DX2                !
 ! D35   D(13,8,9,10)          178.9085         estimate D2E/DX2                !
 ! D36   D(13,8,9,11)            1.3886         estimate D2E/DX2                !
 ! D37   D(7,8,13,12)         -178.5936         estimate D2E/DX2                !
 ! D38   D(7,8,13,14)            5.3858         estimate D2E/DX2                !
 ! D39   D(9,8,13,12)           -0.5018         estimate D2E/DX2                !
 ! D40   D(9,8,13,14)         -176.5224         estimate D2E/DX2                !
 ! D41   D(8,9,10,30)          -60.0357         estimate D2E/DX2                !
 ! D42   D(8,9,10,31)           60.0007         estimate D2E/DX2                !
 ! D43   D(8,9,10,32)          179.9909         estimate D2E/DX2                !
 ! D44   D(11,9,10,30)         117.1951         estimate D2E/DX2                !
 ! D45   D(11,9,10,31)        -122.7685         estimate D2E/DX2                !
 ! D46   D(11,9,10,32)          -2.7783         estimate D2E/DX2                !
 ! D47   D(8,9,11,12)           -1.821          estimate D2E/DX2                !
 ! D48   D(10,9,11,12)        -179.5156         estimate D2E/DX2                !
 ! D49   D(9,11,12,13)           1.4597         estimate D2E/DX2                !
 ! D50   D(11,12,13,8)          -0.5852         estimate D2E/DX2                !
 ! D51   D(11,12,13,14)        175.2996         estimate D2E/DX2                !
 ! D52   D(8,13,14,15)          61.0427         estimate D2E/DX2                !
 ! D53   D(8,13,14,28)        -179.8182         estimate D2E/DX2                !
 ! D54   D(8,13,14,29)         -58.1269         estimate D2E/DX2                !
 ! D55   D(12,13,14,15)       -114.3039         estimate D2E/DX2                !
 ! D56   D(12,13,14,28)          4.8351         estimate D2E/DX2                !
 ! D57   D(12,13,14,29)        126.5265         estimate D2E/DX2                !
 ! D58   D(13,14,15,16)        -73.5894         estimate D2E/DX2                !
 ! D59   D(28,14,15,16)        167.2271         estimate D2E/DX2                !
 ! D60   D(29,14,15,16)         45.5908         estimate D2E/DX2                !
 ! D61   D(14,15,16,1)          15.3298         estimate D2E/DX2                !
 ! D62   D(14,15,16,17)        179.8229         estimate D2E/DX2                !
 ! D63   D(1,16,17,18)          15.4715         estimate D2E/DX2                !
 ! D64   D(1,16,17,22)        -165.9825         estimate D2E/DX2                !
 ! D65   D(15,16,17,18)       -149.0848         estimate D2E/DX2                !
 ! D66   D(15,16,17,22)         29.4613         estimate D2E/DX2                !
 ! D67   D(16,17,18,19)        176.2805         estimate D2E/DX2                !
 ! D68   D(16,17,18,27)         -3.59           estimate D2E/DX2                !
 ! D69   D(22,17,18,19)         -2.3497         estimate D2E/DX2                !
 ! D70   D(22,17,18,27)        177.7798         estimate D2E/DX2                !
 ! D71   D(16,17,22,21)       -176.946          estimate D2E/DX2                !
 ! D72   D(16,17,22,23)          3.0186         estimate D2E/DX2                !
 ! D73   D(18,17,22,21)          1.664          estimate D2E/DX2                !
 ! D74   D(18,17,22,23)       -178.3714         estimate D2E/DX2                !
 ! D75   D(17,18,19,20)          2.2647         estimate D2E/DX2                !
 ! D76   D(17,18,19,26)       -177.7862         estimate D2E/DX2                !
 ! D77   D(27,18,19,20)       -177.8649         estimate D2E/DX2                !
 ! D78   D(27,18,19,26)          2.0842         estimate D2E/DX2                !
 ! D79   D(18,19,20,21)         -1.3193         estimate D2E/DX2                !
 ! D80   D(18,19,20,25)        178.6313         estimate D2E/DX2                !
 ! D81   D(26,19,20,21)        178.7316         estimate D2E/DX2                !
 ! D82   D(26,19,20,25)         -1.3179         estimate D2E/DX2                !
 ! D83   D(19,20,21,22)          0.6369         estimate D2E/DX2                !
 ! D84   D(19,20,21,24)       -179.3279         estimate D2E/DX2                !
 ! D85   D(25,20,21,22)       -179.3137         estimate D2E/DX2                !
 ! D86   D(25,20,21,24)          0.7215         estimate D2E/DX2                !
 ! D87   D(20,21,22,17)         -0.8638         estimate D2E/DX2                !
 ! D88   D(20,21,22,23)        179.1716         estimate D2E/DX2                !
 ! D89   D(24,21,22,17)        179.101          estimate D2E/DX2                !
 ! D90   D(24,21,22,23)         -0.8636         estimate D2E/DX2                !
 --------------------------------------------------------------------------------
 Trust Radius=3.00D-01 FncErr=1.00D-07 GrdErr=1.00D-07
 Number of steps in this run= 201 maximum allowed number of steps= 210.
 GradGradGradGradGradGradGradGradGradGradGradGradGradGradGradGradGradGrad

                          Input orientation:                          
 ---------------------------------------------------------------------
 Center     Atomic     Atomic              Coordinates (Angstroms)
 Number     Number      Type              X           Y           Z
 ---------------------------------------------------------------------
    1          6             0        1.349000    9.727000   -9.653000
    2          6             0        2.617000   10.318000   -9.521000
    3          6             0        3.171000   10.401000   -8.250000
    4         17             0        4.743000   11.122000   -8.032000
    5          6             0        2.549000    9.892000   -7.103000
    6          6             0        1.283000    9.298000   -7.248000
    7          6             0        0.715000    9.211000   -8.513000
    8          7             0       -0.535000    8.608000   -8.521000
    9          6             0       -1.027000    7.536000   -7.845000
   10          6             0       -0.284000    6.597000   -6.876000
   11          7             0       -2.305000    7.349000   -8.181000
   12          7             0       -2.657000    8.270000   -9.005000
   13          6             0       -1.577000    9.053000   -9.234000
   14          6             0       -1.494000   10.190000  -10.203000
   15          7             0       -0.508000    9.734000  -11.219000
   16          6             0        0.822000    9.671000  -10.980000
   17          6             0        1.623000    9.200000  -12.086000
   18          6             0        2.803000    8.494000  -11.870000
   19          6             0        3.547000    7.967000  -12.927000
   20          6             0        3.160000    8.168000  -14.249000
   21          6             0        2.000000    8.883000  -14.468000
   22          6             0        1.253000    9.395000  -13.411000
   23          1             0        0.356000    9.962000  -13.628000
   24          1             0        1.663000    9.049000  -15.485000
   25          1             0        3.747000    7.779000  -15.074000
   26          1             0        4.442000    7.392000  -12.715000
   27          1             0        3.152000    8.348000  -10.854000
   28          1             0       -2.473000   10.379000  -10.668000
   29          1             0       -1.143000   11.105000   -9.702000
   30          1             0        0.549000    6.110000   -7.404000
   31          1             0        0.108000    7.179000   -6.030000
   32          1             0       -0.979000    5.831000   -6.503000
   33          1             0        0.756000    8.913000   -6.382000
   34          1             0        3.030000    9.955000   -6.133000
   35          1             0        3.147000   10.697000  -10.387000
 ---------------------------------------------------------------------
                    Distance matrix (angstroms):
                    1          2          3          4          5
     1  C    0.000000
     2  C    1.405179   0.000000
     3  C    2.396324   1.388973   0.000000
     4  Cl   4.011596   2.717244   1.743143   0.000000
     5  C    2.823070   2.456181   1.400562   2.681339   0.000000
     6  C    2.443854   2.826037   2.405235   3.989139   1.405922
     7  C    1.402787   2.420561   2.741752   4.484202   2.411518
     8  N    2.466382   3.722795   4.125861   5.866566   3.629110
     9  C    3.703339   4.881315   5.098574   6.796121   4.346156
    10  C    4.491694   5.409036   5.319334   6.861683   4.351373
    11  N    4.601455   5.902258   6.269453   7.995751   5.584823
    12  N    4.311704   5.681165   6.251141   7.990033   5.775026
    13  C    3.031718   4.390015   5.032779   6.757808   4.719000
    14  C    2.932493   4.169152   5.061715   6.669485   5.103396
    15  N    2.429167   3.604148   4.774400   6.297342   5.129490
    16  C    1.428914   2.401940   3.674725   5.115696   4.250000
    17  C    2.504455   2.969375   4.307389   5.464742   5.115333
    18  C    2.923952   2.979828   4.108098   5.039864   4.974255
    19  C    4.318319   4.241808   5.285836   5.945205   6.214548
    20  C    5.180098   5.222196   6.401126   7.062796   7.376369
    21  C    4.931568   5.187747   6.506849   7.345697   7.454040
    22  C    3.773858   4.224278   5.597024   6.640502   6.458908
    23  H    4.103888   4.701734   6.086036   7.204622   6.884023
    24  H    5.879669   6.171691   7.513135   8.326520   8.470748
    25  H    6.239579   6.209608   7.333051   7.858590   8.332875
    26  H    4.939101   4.700398   5.532246   5.994497   6.428685
    27  H    2.568044   2.438035   3.316020   4.264978   4.100920
    28  H    4.007869   5.217991   6.140191   7.718238   6.177935
    29  H    2.848043   3.845742   4.605922   6.118348   4.675151
    30  H    4.333669   5.144471   5.099341   6.565376   4.288837
    31  H    4.599838   5.323108   4.969070   6.406128   3.803969
    32  H    5.524572   6.494052   6.415560   7.941902   5.412809
    33  H    3.422526   3.910328   3.396438   4.847510   2.166364
    34  H    3.907447   3.432329   2.168060   2.811131   1.084541
    35  H    2.170820   1.083742   2.157536   2.876433   3.433698
                    6          7          8          9         10
     6  C    0.000000
     7  C    1.389395   0.000000
     8  N    2.324167   1.387866   0.000000
     9  C    2.965999   2.507272   1.359494   0.000000
    10  C    3.144722   3.242031   2.610201   1.540367   0.000000
    11  N    4.188417   3.563379   2.198541   1.334597   2.520510
    12  N    4.434798   3.535241   2.202586   2.131022   3.600375
    13  C    3.490533   2.407918   1.338715   2.129110   3.641970
    14  C    4.152038   2.948597   2.500306   3.580778   5.044074
    15  N    4.377970   3.015244   2.923664   4.060104   5.362145
    16  C    3.778819   2.511800   3.003015   4.219627   5.245525
    17  C    4.850922   3.686586   4.209115   5.270434   6.128324
    18  C    4.931501   4.017870   4.729803   5.638022   6.169944
    19  C    6.256860   5.389912   6.040401   6.850837   7.291643
    20  C    7.335805   6.321991   6.830564   7.677344   8.287962
    21  C    7.267373   6.100888   6.470600   7.405489   8.251116
    22  C    6.163836   4.930893   5.265778   6.295605   7.273060
    23  H    6.481098   5.182288   5.358045   6.421935   7.571151
    24  H    8.249519   7.038020   7.315940   8.239834   9.160677
    25  H    8.344156   7.368200   7.871758   8.666520   9.211584
    26  H    6.595469   5.903905   6.621089   7.324452   7.553875
    27  H    4.171199   3.487695   4.370865   5.213201   5.540450
    28  H    5.193505   4.021392   3.391444   4.259448   5.785716
    29  H    3.895233   2.907425   2.828327   4.024881   5.389455
    30  H    3.275124   3.297520   2.943255   2.170653   1.099928
    31  H    2.711883   3.265388   2.942885   2.170230   1.099138
    32  H    4.206157   4.281838   3.461385   2.170321   1.099504
    33  H    1.084394   2.152126   2.516948   2.686184   2.586405
    34  H    2.174140   3.402523   4.497352   5.024117   4.776066
    35  H    3.909606   3.410967   4.626338   5.820306   6.396005
                   11         12         13         14         15
    11  N    0.000000
    12  N    1.284960   0.000000
    13  C    2.131293   1.353488   0.000000
    14  C    3.580152   2.544440   1.496202   0.000000
    15  N    4.259915   3.415156   2.355153   1.487410   0.000000
    16  C    4.796271   4.238734   3.030782   2.497388   1.352771
    17  C    5.839898   5.354985   4.288999   3.773788   2.361780
    18  C    6.404015   6.170089   5.142507   4.911162   3.595013
    19  C    7.559917   7.345986   6.408824   6.146022   4.741580
    20  C    8.207168   7.832460   6.955043   6.489863   5.008740
    21  C    7.772551   7.204706   6.341812   5.666261   4.191690
    22  C    6.648186   5.997213   5.056994   4.297592   2.832120
    23  H    6.601401   5.771756   4.885694   3.899373   2.569389
    24  H    8.484306   7.826854   7.040782   6.258439   4.835413
    25  H    9.182867   8.836575   8.004602   7.550341   6.065317
    26  H    8.129023   8.057964   7.148751   7.026738   5.676749
    27  H    6.158066   6.096668   5.048254   5.040048   3.930626
    28  H    3.923556   2.692082   2.148825   1.100176   2.140292
    29  H    4.215593   3.288652   2.148973   1.100648   2.141064
    30  H    3.206894   4.184165   4.065713   5.353004   5.367015
    31  H    3.237016   4.205488   4.076361   5.389476   5.816631
    32  H    2.622648   3.876133   4.265823   5.740741   6.139699
    33  H    3.879719   4.352258   3.687329   4.614463   5.066390
    34  H    6.280746   6.590112   5.626211   6.089885   6.199490
    35  H    6.767558   6.441015   5.133062   4.672236   3.870222
                   16         17         18         19         20
    16  C    0.000000
    17  C    1.444534   0.000000
    18  C    2.470180   1.391938   0.000000
    19  C    3.757665   2.435025   1.395892   0.000000
    20  C    4.290876   2.847097   2.427626   1.392068   0.000000
    21  C    3.764940   2.432394   2.746950   2.367899   1.380140
    22  C    2.484290   1.389442   2.364103   2.745155   2.417524
    23  H    2.704393   2.136281   3.351626   3.828042   3.386221
    24  H    4.624845   3.402588   3.830907   3.356120   2.131869
    25  H    5.375512   3.931763   3.415842   2.164475   1.084673
    26  H    4.616109   3.407531   2.148197   1.084709   2.144494
    27  H    2.682369   2.140460   1.084146   2.144415   3.399778
    28  H    3.384617   4.491991   5.730114   6.867403   7.031555
    29  H    2.747884   4.118645   5.204658   6.499521   6.914983
    30  H    5.054011   5.711628   5.541582   6.552861   7.609646
    31  H    5.587697   6.561616   6.564895   7.747017   8.822969
    32  H    6.167068   7.020716   7.085180   8.143399   9.088091
    33  H    4.660528   5.776649   5.872301   7.177856   8.259778
    34  H    5.333791   6.163431   5.924459   7.097737   8.311421
    35  H    2.609588   2.729503   2.677841   3.750267   4.616390
                   21         22         23         24         25
    21  C    0.000000
    22  C    1.391906   0.000000
    23  H    2.138358   1.083138   0.000000
    24  H    1.084165   2.142263   2.447502   0.000000
    25  H    2.153616   3.405446   4.284307   2.474849   0.000000
    26  H    3.355511   3.829640   4.912623   4.259271   2.489513
    27  H    3.830708   3.352709   4.256488   4.914741   4.299556
    28  H    6.056876   4.730262   4.115669   6.486824   8.053647
    29  H    6.126213   4.735145   4.355103   6.748619   7.989541
    30  H    7.726256   6.882651   7.322112   8.670714   8.475946
    31  H    8.813803   7.791075   8.095443   9.762784   9.767101
    32  H    9.034953   8.087298   8.343441   9.900102   9.979570
    33  H    8.181188   7.063015   7.332456   9.149085   9.261906
    34  H    8.466541   7.512697   7.957723   9.494705   9.229872
    35  H    4.610940   3.798291   4.339814   5.559475   5.553620
                   26         27         28         29         30
    26  H    0.000000
    27  H    2.457917   0.000000
    28  H    7.805742   5.983325   0.000000
    29  H    7.352330   5.232129   1.796979   0.000000
    30  H    6.708628   4.866904   6.165269   5.752712   0.000000
    31  H    7.969827   5.822669   6.197790   5.519245   1.795861
    32  H    8.391240   6.506278   6.345358   6.170541   1.795669
    33  H    7.483778   5.104785   5.562858   4.408340   2.990676
    34  H    7.203155   4.988504   7.143459   5.610186   4.749192
    35  H    4.244954   2.394977   5.635999   4.363461   6.057100
                   31         32         33         34         35
    31  H    0.000000
    32  H    1.795105   0.000000
    33  H    1.884294   3.538868   0.000000
    34  H    4.031733   5.763363   2.513730   0.000000
    35  H    6.371444   7.469089   4.993953   4.319811   0.000000
 Stoichiometry    C17H13ClN4
 Framework group  C1[X(C17H13ClN4)]
 Deg. of freedom    99
 Full point group                 C1
 Largest Abelian subgroup         C1      NOp   1
 Largest concise Abelian subgroup C1      NOp   1
                         Standard orientation:                         
 ---------------------------------------------------------------------
 Center     Atomic     Atomic              Coordinates (Angstroms)
 Number     Number      Type              X           Y           Z
 ---------------------------------------------------------------------
    1          6             0        0.043700    0.415820   -0.467613
    2          6             0        0.798485    1.596870   -0.567371
    3          6             0        0.157801    2.805169   -0.324916
    4         17             0        1.049525    4.299113   -0.432193
    5          6             0       -1.187892    2.902608    0.050835
    6          6             0       -1.931749    1.713952    0.152770
    7          6             0       -1.304853    0.498061   -0.090186
    8          7             0       -2.146993   -0.597453    0.039515
    9          6             0       -3.126051   -0.884980    0.937846
   10          6             0       -3.560851   -0.067034    2.168555
   11          7             0       -3.670694   -2.065568    0.636639
   12          7             0       -3.112812   -2.521119   -0.427486
   13          6             0       -2.164210   -1.633743   -0.807813
   14          6             0       -1.197214   -1.797403   -1.937748
   15          7             0        0.131785   -1.873837   -1.274191
   16          6             0        0.748333   -0.798926   -0.731582
   17          6             0        2.032437   -1.067840   -0.127066
   18          6             0        2.484235   -0.326920    0.961239
   19          6             0        3.687425   -0.624700    1.603249
   20          6             0        4.510030   -1.651491    1.148414
   21          6             0        4.074052   -2.377031    0.058321
   22          6             0        2.866906   -2.086356   -0.570731
   23          1             0        2.568913   -2.672195   -1.431649
   24          1             0        4.684508   -3.191167   -0.315766
   25          1             0        5.456142   -1.872029    1.630855
   26          1             0        3.986960   -0.046026    2.470433
   27          1             0        1.884717    0.501770    1.320715
   28          1             0       -1.405542   -2.720176   -2.499420
   29          1             0       -1.243774   -0.934522   -2.619435
   30          1             0       -2.709956    0.038984    2.857453
   31          1             0       -3.898460    0.928175    1.846555
   32          1             0       -4.384293   -0.585322    2.680639
   33          1             0       -2.982886    1.746390    0.417285
   34          1             0       -1.641375    3.866125    0.256308
   35          1             0        1.850602    1.564584   -0.825252
 ---------------------------------------------------------------------
 Rotational constants (GHZ):      0.2967904      0.2385577      0.1549027
 Standard basis: 6-31G(d) (6D, 7F)
 There are   360 symmetry adapted basis functions of A   symmetry.
 Integral buffers will be    131072 words long.
 Raffenetti 1 integral format.
 Two-electron integral symmetry is turned on.
   360 basis functions,   692 primitive gaussians,   360 cartesian basis functions
    80 alpha electrons       80 beta electrons
       nuclear repulsion energy      1820.7911988841 Hartrees.
 NAtoms=   35 NActive=   35 NUniq=   35 SFac= 7.50D-01 NAtFMM=   80 NAOKFM=F Big=F
 One-electron integrals computed using PRISM.
 NBasis=   360 RedAO= T  NBF=   360
 NBsUse=   360 1.00D-06 NBFU=   360
 Harris functional with IExCor=  205 diagonalized for initial guess.
 ExpMin= 1.43D-01 ExpMax= 2.52D+04 ExpMxC= 3.78D+03 IAcc=1 IRadAn=         1 AccDes= 1.00D-06
 HarFok:  IExCor= 205 AccDes= 1.00D-06 IRadAn=         1 IDoV=1
 ScaDFX=  1.000000  1.000000  1.000000  1.000000
 Initial guess orbital symmetries:
       Occupied  (A) (A) (A) (A) (A) (A) (A) (A) (A) (A) (A) (A)
                 (A) (A) (A) (A) (A) (A) (A) (A) (A) (A) (A) (A)
                 (A) (A) (A) (A) (A) (A) (A) (A) (A) (A) (A) (A)
                 (A) (A) (A) (A) (A) (A) (A) (A) (A) (A) (A) (A)
                 (A) (A) (A) (A) (A) (A) (A) (A) (A) (A) (A) (A)
                 (A) (A) (A) (A) (A) (A) (A) (A) (A) (A) (A) (A)
                 (A) (A) (A) (A) (A) (A) (A) (A)
       Virtual   (A) (A) (A) (A) (A) (A) (A) (A) (A) (A) (A) (A)
                 (A) (A) (A) (A) (A) (A) (A) (A) (A) (A) (A) (A)
                 (A) (A) (A) (A) (A) (A) (A) (A) (A) (A) (A) (A)
                 (A) (A) (A) (A) (A) (A) (A) (A) (A) (A) (A) (A)
                 (A) (A) (A) (A) (A) (A) (A) (A) (A) (A) (A) (A)
                 (A) (A) (A) (A) (A) (A) (A) (A) (A) (A) (A) (A)
                 (A) (A) (A) (A) (A) (A) (A) (A) (A) (A) (A) (A)
                 (A) (A) (A) (A) (A) (A) (A) (A) (A) (A) (A) (A)
                 (A) (A) (A) (A) (A) (A) (A) (A) (A) (A) (A) (A)
                 (A) (A) (A) (A) (A) (A) (A) (A) (A) (A) (A) (A)
                 (A) (A) (A) (A) (A) (A) (A) (A) (A) (A) (A) (A)
                 (A) (A) (A) (A) (A) (A) (A) (A) (A) (A) (A) (A)
                 (A) (A) (A) (A) (A) (A) (A) (A) (A) (A) (A) (A)
                 (A) (A) (A) (A) (A) (A) (A) (A) (A) (A) (A) (A)
                 (A) (A) (A) (A) (A) (A) (A) (A) (A) (A) (A) (A)
                 (A) (A) (A) (A) (A) (A) (A) (A) (A) (A) (A) (A)
                 (A) (A) (A) (A) (A) (A) (A) (A) (A) (A) (A) (A)
                 (A) (A) (A) (A) (A) (A) (A) (A) (A) (A) (A) (A)
                 (A) (A) (A) (A) (A) (A) (A) (A) (A) (A) (A) (A)
                 (A) (A) (A) (A) (A) (A) (A) (A) (A) (A) (A) (A)
                 (A) (A) (A) (A) (A) (A) (A) (A) (A) (A) (A) (A)
                 (A) (A) (A) (A) (A) (A) (A) (A) (A) (A) (A) (A)
                 (A) (A) (A) (A) (A) (A) (A) (A) (A) (A) (A) (A)
                 (A) (A) (A) (A)
 The electronic state of the initial guess is 1-A.
 Requested convergence on RMS density matrix=1.00D-08 within 128 cycles.
 Requested convergence on MAX density matrix=1.00D-06.
 Requested convergence on             energy=1.00D-06.
 No special actions if energy rises.
 Integral accuracy reduced to 1.0D-05 until final iterations.
 Initial convergence to 1.0D-05 achieved.  Increase integral accuracy.
 SCF Done:  E(RHF) =  -1328.53431541     A.U. after   16 cycles
             Convg  =    0.8891D-08             -V/T =  2.0013
             S**2   =   0.0000

 **********************************************************************

            Population analysis using the SCF density.

 **********************************************************************

 Orbital symmetries:
 BldTbl:  Degeneracy threshold= 1.00D-02
       Occupied  (A) (A) (A) (A) (A) (A) (A) (A) (A) (A) (A) (A)
                 (A) (A) (A) (A) (A) (A) (A) (A) (A) (A) (A) (A)
                 (A) (A) (A) (A) (A) (A) (A) (A) (A) (A) (A) (A)
                 (A) (A) (A) (A) (A) (A) (A) (A) (A) (A) (A) (A)
                 (A) (A) (A) (A) (A) (A) (A) (A) (A) (A) (A) (A)
                 (A) (A) (A) (A) (A) (A) (A) (A) (A) (A) (A) (A)
                 (A) (A) (A) (A) (A) (A) (A) (A)
       Virtual   (A) (A) (A) (A) (A) (A) (A) (A) (A) (A) (A) (A)
                 (A) (A) (A) (A) (A) (A) (A) (A) (A) (A) (A) (A)
                 (A) (A) (A) (A) (A) (A) (A) (A) (A) (A) (A) (A)
                 (A) (A) (A) (A) (A) (A) (A) (A) (A) (A) (A) (A)
                 (A) (A) (A) (A) (A) (A) (A) (A) (A) (A) (A) (A)
                 (A) (A) (A) (A) (A) (A) (A) (A) (A) (A) (A) (A)
                 (A) (A) (A) (A) (A) (A) (A) (A) (A) (A) (A) (A)
                 (A) (A) (A) (A) (A) (A) (A) (A) (A) (A) (A) (A)
                 (A) (A) (A) (A) (A) (A) (A) (A) (A) (A) (A) (A)
                 (A) (A) (A) (A) (A) (A) (A) (A) (A) (A) (A) (A)
                 (A) (A) (A) (A) (A) (A) (A) (A) (A) (A) (A) (A)
                 (A) (A) (A) (A) (A) (A) (A) (A) (A) (A) (A) (A)
                 (A) (A) (A) (A) (A) (A) (A) (A) (A) (A) (A) (A)
                 (A) (A) (A) (A) (A) (A) (A) (A) (A) (A) (A) (A)
                 (A) (A) (A) (A) (A) (A) (A) (A) (A) (A) (A) (A)
                 (A) (A) (A) (A) (A) (A) (A) (A) (A) (A) (A) (A)
                 (A) (A) (A) (A) (A) (A) (A) (A) (A) (A) (A) (A)
                 (A) (A) (A) (A) (A) (A) (A) (A) (A) (A) (A) (A)
                 (A) (A) (A) (A) (A) (A) (A) (A) (A) (A) (A) (A)
                 (A) (A) (A) (A) (A) (A) (A) (A) (A) (A) (A) (A)
                 (A) (A) (A) (A) (A) (A) (A) (A) (A) (A) (A) (A)
                 (A) (A) (A) (A) (A) (A) (A) (A) (A) (A) (A) (A)
                 (A) (A) (A) (A) (A) (A) (A) (A) (A) (A) (A) (A)
                 (A) (A) (A) (A)
 The electronic state is 1-A.
 Alpha  occ. eigenvalues -- -104.84531 -15.65947 -15.58272 -15.57499 -15.57133
 Alpha  occ. eigenvalues --  -11.33349 -11.33206 -11.31361 -11.30576 -11.30178
 Alpha  occ. eigenvalues --  -11.29115 -11.28968 -11.28806 -11.28379 -11.28361
 Alpha  occ. eigenvalues --  -11.25553 -11.25307 -11.24961 -11.24826 -11.24491
 Alpha  occ. eigenvalues --  -11.24369 -11.24084 -10.57878  -8.04817  -8.04479
 Alpha  occ. eigenvalues --   -8.04475  -1.42667  -1.29161  -1.23618  -1.21148
 Alpha  occ. eigenvalues --   -1.16448  -1.14401  -1.09913  -1.08258  -1.04522
 Alpha  occ. eigenvalues --   -1.03389  -1.02092  -0.98535  -0.95263  -0.91674
 Alpha  occ. eigenvalues --   -0.89093  -0.85568  -0.83946  -0.82230  -0.81131
 Alpha  occ. eigenvalues --   -0.76977  -0.72793  -0.72160  -0.69827  -0.68201
 Alpha  occ. eigenvalues --   -0.67303  -0.65716  -0.65447  -0.63662  -0.62819
 Alpha  occ. eigenvalues --   -0.62213  -0.61021  -0.59229  -0.58752  -0.58514
 Alpha  occ. eigenvalues --   -0.57531  -0.57154  -0.56556  -0.55354  -0.54707
 Alpha  occ. eigenvalues --   -0.52493  -0.51475  -0.50280  -0.49732  -0.48945
 Alpha  occ. eigenvalues --   -0.47368  -0.45215  -0.43966  -0.41591  -0.39903
 Alpha  occ. eigenvalues --   -0.37405  -0.34845  -0.34091  -0.33103  -0.31487
 Alpha virt. eigenvalues --    0.05089   0.08710   0.10168   0.13680   0.17217
 Alpha virt. eigenvalues --    0.17813   0.20513   0.22426   0.23282   0.23520
 Alpha virt. eigenvalues --    0.26408   0.27394   0.28048   0.28284   0.28620
 Alpha virt. eigenvalues --    0.29709   0.30212   0.30591   0.31177   0.32743
 Alpha virt. eigenvalues --    0.34037   0.36097   0.36659   0.37461   0.37856
 Alpha virt. eigenvalues --    0.38559   0.40660   0.42845   0.43533   0.44581
 Alpha virt. eigenvalues --    0.44816   0.45482   0.46869   0.48242   0.48766
 Alpha virt. eigenvalues --    0.49690   0.50401   0.53547   0.54879   0.55642
 Alpha virt. eigenvalues --    0.57299   0.57739   0.59249   0.60810   0.62032
 Alpha virt. eigenvalues --    0.63577   0.66162   0.67575   0.67876   0.70319
 Alpha virt. eigenvalues --    0.71747   0.72042   0.73202   0.73446   0.73975
 Alpha virt. eigenvalues --    0.75125   0.75499   0.75836   0.76950   0.77615
 Alpha virt. eigenvalues --    0.78556   0.78908   0.79130   0.79516   0.81000
 Alpha virt. eigenvalues --    0.81486   0.81829   0.82647   0.83094   0.84253
 Alpha virt. eigenvalues --    0.84297   0.84906   0.85327   0.86938   0.87489
 Alpha virt. eigenvalues --    0.88329   0.89424   0.90570   0.91487   0.92648
 Alpha virt. eigenvalues --    0.93493   0.94713   0.96019   0.96888   0.98540
 Alpha virt. eigenvalues --    0.99125   0.99782   1.01766   1.02690   1.03951
 Alpha virt. eigenvalues --    1.04752   1.05818   1.06658   1.07230   1.08720
 Alpha virt. eigenvalues --    1.09123   1.09554   1.10058   1.10414   1.11055
 Alpha virt. eigenvalues --    1.11653   1.12012   1.12733   1.13269   1.13601
 Alpha virt. eigenvalues --    1.14305   1.15466   1.15931   1.17026   1.17789
 Alpha virt. eigenvalues --    1.18265   1.18475   1.19528   1.19892   1.20711
 Alpha virt. eigenvalues --    1.21770   1.22037   1.23274   1.23712   1.24255
 Alpha virt. eigenvalues --    1.26312   1.28461   1.29455   1.31573   1.32837
 Alpha virt. eigenvalues --    1.33458   1.34221   1.35840   1.38015   1.39086
 Alpha virt. eigenvalues --    1.42188   1.43432   1.44368   1.45485   1.46026
 Alpha virt. eigenvalues --    1.47688   1.48772   1.50925   1.52462   1.53677
 Alpha virt. eigenvalues --    1.55216   1.56792   1.57814   1.60801   1.63034
 Alpha virt. eigenvalues --    1.63852   1.65807   1.67504   1.68121   1.68776
 Alpha virt. eigenvalues --    1.70176   1.71143   1.71503   1.72835   1.75551
 Alpha virt. eigenvalues --    1.76412   1.77013   1.78463   1.79515   1.81012
 Alpha virt. eigenvalues --    1.82065   1.83360   1.84473   1.86779   1.88191
 Alpha virt. eigenvalues --    1.93906   1.97014   2.00347   2.01988   2.04393
 Alpha virt. eigenvalues --    2.04885   2.06527   2.07944   2.10043   2.10963
 Alpha virt. eigenvalues --    2.12370   2.13223   2.14303   2.16761   2.17191
 Alpha virt. eigenvalues --    2.18939   2.20357   2.21524   2.22797   2.23377
 Alpha virt. eigenvalues --    2.24782   2.26299   2.28504   2.31575   2.32550
 Alpha virt. eigenvalues --    2.34189   2.35866   2.36320   2.37661   2.38927
 Alpha virt. eigenvalues --    2.40850   2.42268   2.43326   2.44267   2.45711
 Alpha virt. eigenvalues --    2.46407   2.47941   2.48353   2.49832   2.51348
 Alpha virt. eigenvalues --    2.52477   2.52962   2.55699   2.57198   2.57668
 Alpha virt. eigenvalues --    2.58382   2.59902   2.60761   2.62810   2.63944
 Alpha virt. eigenvalues --    2.64658   2.66704   2.68147   2.71110   2.73716
 Alpha virt. eigenvalues --    2.74707   2.78867   2.81149   2.82139   2.83175
 Alpha virt. eigenvalues --    2.84235   2.85632   2.90407   2.90894   2.92400
 Alpha virt. eigenvalues --    2.92789   2.95392   2.97665   2.99227   3.00499
 Alpha virt. eigenvalues --    3.02966   3.03776   3.06544   3.06993   3.07691
 Alpha virt. eigenvalues --    3.10448   3.11174   3.12313   3.12767   3.14016
 Alpha virt. eigenvalues --    3.16959   3.20845   3.22402   3.26548   3.31282
 Alpha virt. eigenvalues --    3.35573   3.48266   3.48948   3.56453   3.58777
 Alpha virt. eigenvalues --    3.70731   3.80140   3.82750   4.20207   4.42470
 Alpha virt. eigenvalues --    4.45620   4.50596   4.51536   4.53292   4.54105
 Alpha virt. eigenvalues --    4.56607   4.58325   4.61717   4.64437   4.70206
 Alpha virt. eigenvalues --    4.71114   4.74839   4.76494   4.76736   4.82847
 Alpha virt. eigenvalues --    4.85419   4.91650   5.02606   5.12027   5.21841
          Condensed to atoms (all electrons):
              1          2          3          4          5          6
     1  C    5.046919   0.470975  -0.046462   0.002898  -0.026155  -0.040921
     2  C    0.470975   5.051611   0.512498  -0.066461  -0.043077  -0.037313
     3  C   -0.046462   0.512498   5.059082   0.217626   0.520274  -0.042586
     4  Cl   0.002898  -0.066461   0.217626  16.902582  -0.071527   0.003441
     5  C   -0.026155  -0.043077   0.520274  -0.071527   4.950021   0.519730
     6  C   -0.040921  -0.037313  -0.042586   0.003441   0.519730   5.003077
     7  C    0.589379  -0.031162  -0.028399   0.000209  -0.038833   0.536652
     8  N   -0.046424   0.005383  -0.000372   0.000003   0.005154  -0.073531
     9  C    0.001184  -0.000035   0.000010   0.000000   0.000107  -0.002157
    10  C   -0.000072  -0.000006  -0.000004   0.000000   0.000111  -0.009156
    11  N   -0.000199   0.000000   0.000000   0.000000  -0.000004  -0.000007
    12  N    0.000201   0.000000   0.000000   0.000000   0.000001  -0.000305
    13  C    0.000986  -0.000129   0.000033   0.000000  -0.000080   0.002645
    14  C   -0.011236  -0.000256  -0.000003   0.000000  -0.000006  -0.000137
    15  N   -0.096115   0.005513  -0.000219   0.000001   0.000020   0.000040
    16  C    0.318313  -0.035594   0.000950  -0.000053  -0.000100   0.005356
    17  C   -0.081757  -0.004737   0.000539  -0.000024   0.000025  -0.000195
    18  C   -0.012768  -0.011527  -0.000699   0.000049  -0.000002   0.000059
    19  C    0.000201  -0.000062  -0.000026   0.000003  -0.000001   0.000000
    20  C    0.000005  -0.000003   0.000000   0.000000   0.000000   0.000000
    21  C   -0.000119  -0.000010   0.000000   0.000000   0.000000   0.000000
    22  C    0.008868  -0.000274   0.000013  -0.000001   0.000000   0.000000
    23  H    0.000400  -0.000027   0.000000   0.000000   0.000000   0.000000
    24  H    0.000001   0.000000   0.000000   0.000000   0.000000   0.000000
    25  H    0.000000   0.000000   0.000000   0.000000   0.000000   0.000000
    26  H    0.000008  -0.000004   0.000000   0.000000   0.000000   0.000000
    27  H    0.002928  -0.000735   0.000331   0.000019   0.000045  -0.000022
    28  H   -0.000169   0.000012   0.000000   0.000000   0.000000   0.000000
    29  H    0.001959   0.000020   0.000036   0.000000  -0.000058   0.000567
    30  H    0.000106  -0.000003  -0.000002   0.000000  -0.000063   0.000307
    31  H   -0.000095   0.000002  -0.000003   0.000000   0.000337  -0.004200
    32  H    0.000003   0.000000   0.000000   0.000000   0.000001   0.000278
    33  H    0.001299   0.000297   0.001924  -0.000081  -0.019649   0.376385
    34  H    0.000266   0.001729  -0.026133  -0.000663   0.378943  -0.022193
    35  H   -0.030170   0.376071  -0.021395   0.000422   0.001760   0.000088
              7          8          9         10         11         12
     1  C    0.589379  -0.046424   0.001184  -0.000072  -0.000199   0.000201
     2  C   -0.031162   0.005383  -0.000035  -0.000006   0.000000   0.000000
     3  C   -0.028399  -0.000372   0.000010  -0.000004   0.000000   0.000000
     4  Cl   0.000209   0.000003   0.000000   0.000000   0.000000   0.000000
     5  C   -0.038833   0.005154   0.000107   0.000111  -0.000004   0.000001
     6  C    0.536652  -0.073531  -0.002157  -0.009156  -0.000007  -0.000305
     7  C    4.571059   0.184485  -0.026113   0.000890   0.005422   0.005500
     8  N    0.184485   7.277655   0.345002  -0.049272  -0.068068  -0.078100
     9  C   -0.026113   0.345002   4.710087   0.343957   0.537467  -0.139915
    10  C    0.000890  -0.049272   0.343957   5.108599  -0.041950   0.004664
    11  N    0.005422  -0.068068   0.537467  -0.041950   6.718884   0.320833
    12  N    0.005500  -0.078100  -0.139915   0.004664   0.320833   6.752040
    13  C   -0.031166   0.339270  -0.116409   0.003234  -0.144855   0.521137
    14  C    0.000823  -0.053015   0.003161  -0.000053   0.004038  -0.031632
    15  N   -0.012757  -0.004142   0.000340   0.000001  -0.000187   0.000764
    16  C   -0.045066  -0.016723  -0.000140   0.000006  -0.000008   0.000116
    17  C    0.001685   0.000100   0.000010   0.000000   0.000000   0.000001
    18  C    0.000019  -0.000048  -0.000001   0.000000   0.000000   0.000000
    19  C   -0.000004   0.000000   0.000000   0.000000   0.000000   0.000000
    20  C    0.000000   0.000000   0.000000   0.000000   0.000000   0.000000
    21  C    0.000000   0.000000   0.000000   0.000000   0.000000   0.000000
    22  C   -0.000005   0.000013   0.000000   0.000000   0.000000   0.000000
    23  H    0.000000   0.000001   0.000000   0.000000   0.000000   0.000000
    24  H    0.000000   0.000000   0.000000   0.000000   0.000000   0.000000
    25  H    0.000000   0.000000   0.000000   0.000000   0.000000   0.000000
    26  H    0.000000   0.000000   0.000000   0.000000   0.000000   0.000000
    27  H   -0.000123  -0.000004   0.000001   0.000000   0.000000   0.000000
    28  H   -0.000089   0.003107   0.000005   0.000000   0.000005   0.002357
    29  H    0.005961  -0.005559  -0.000108  -0.000002  -0.000103   0.000893
    30  H    0.001171  -0.000406  -0.042957   0.387132   0.000180  -0.000068
    31  H   -0.000939   0.000068  -0.048174   0.386571   0.000806  -0.000088
    32  H   -0.000016   0.002376  -0.031842   0.388304   0.002322   0.000035
    33  H   -0.029984  -0.003768   0.002282  -0.003026  -0.000015  -0.000014
    34  H    0.001424  -0.000092  -0.000005   0.000003   0.000000   0.000000
    35  H    0.001213  -0.000046   0.000000   0.000000   0.000000   0.000000
             13         14         15         16         17         18
     1  C    0.000986  -0.011236  -0.096115   0.318313  -0.081757  -0.012768
     2  C   -0.000129  -0.000256   0.005513  -0.035594  -0.004737  -0.011527
     3  C    0.000033  -0.000003  -0.000219   0.000950   0.000539  -0.000699
     4  Cl   0.000000   0.000000   0.000001  -0.000053  -0.000024   0.000049
     5  C   -0.000080  -0.000006   0.000020  -0.000100   0.000025  -0.000002
     6  C    0.002645  -0.000137   0.000040   0.005356  -0.000195   0.000059
     7  C   -0.031166   0.000823  -0.012757  -0.045066   0.001685   0.000019
     8  N    0.339270  -0.053015  -0.004142  -0.016723   0.000100  -0.000048
     9  C   -0.116409   0.003161   0.000340  -0.000140   0.000010  -0.000001
    10  C    0.003234  -0.000053   0.000001   0.000006   0.000000   0.000000
    11  N   -0.144855   0.004038  -0.000187  -0.000008   0.000000   0.000000
    12  N    0.521137  -0.031632   0.000764   0.000116   0.000001   0.000000
    13  C    4.773503   0.317643  -0.071051   0.000752  -0.001290  -0.000022
    14  C    0.317643   4.986693   0.233350  -0.053601   0.007020  -0.000028
    15  N   -0.071051   0.233350   7.046330   0.590683  -0.095712   0.001768
    16  C    0.000752  -0.053601   0.590683   4.643860   0.376864  -0.052642
    17  C   -0.001290   0.007020  -0.095712   0.376864   4.866408   0.552968
    18  C   -0.000022  -0.000028   0.001768  -0.052642   0.552968   4.980169
    19  C    0.000000   0.000001  -0.000058   0.004028  -0.036884   0.545345
    20  C    0.000000   0.000000   0.000012  -0.000114  -0.026134  -0.043553
    21  C    0.000000   0.000004   0.000428   0.003557  -0.039007  -0.039635
    22  C    0.000070  -0.000053  -0.005071  -0.033200   0.543060  -0.048004
    23  H    0.000027  -0.000192   0.006880  -0.001177  -0.030220   0.003159
    24  H    0.000000   0.000000  -0.000011  -0.000097   0.001714   0.000320
    25  H    0.000000   0.000000   0.000000   0.000006   0.000275   0.002355
    26  H    0.000000   0.000000   0.000001  -0.000120   0.001588  -0.029481
    27  H   -0.000004   0.000003  -0.000109  -0.005698  -0.033791   0.377151
    28  H   -0.040494   0.410275  -0.033937   0.001455   0.000154   0.000002
    29  H   -0.044321   0.389536  -0.046861  -0.002264  -0.000674  -0.000008
    30  H    0.000047  -0.000001  -0.000003  -0.000012   0.000000   0.000000
    31  H    0.000131   0.000001   0.000001   0.000002   0.000000   0.000000
    32  H    0.000029   0.000001   0.000000   0.000000   0.000000   0.000000
    33  H    0.000026   0.000001   0.000000  -0.000079   0.000001   0.000000
    34  H    0.000001   0.000000   0.000000   0.000003   0.000000   0.000000
    35  H   -0.000001  -0.000010   0.000124  -0.000773   0.004766   0.002092
             19         20         21         22         23         24
     1  C    0.000201   0.000005  -0.000119   0.008868   0.000400   0.000001
     2  C   -0.000062  -0.000003  -0.000010  -0.000274  -0.000027   0.000000
     3  C   -0.000026   0.000000   0.000000   0.000013   0.000000   0.000000
     4  Cl   0.000003   0.000000   0.000000  -0.000001   0.000000   0.000000
     5  C   -0.000001   0.000000   0.000000   0.000000   0.000000   0.000000
     6  C    0.000000   0.000000   0.000000   0.000000   0.000000   0.000000
     7  C   -0.000004   0.000000   0.000000  -0.000005   0.000000   0.000000
     8  N    0.000000   0.000000   0.000000   0.000013   0.000001   0.000000
     9  C    0.000000   0.000000   0.000000   0.000000   0.000000   0.000000
    10  C    0.000000   0.000000   0.000000   0.000000   0.000000   0.000000
    11  N    0.000000   0.000000   0.000000   0.000000   0.000000   0.000000
    12  N    0.000000   0.000000   0.000000   0.000000   0.000000   0.000000
    13  C    0.000000   0.000000   0.000000   0.000070   0.000027   0.000000
    14  C    0.000001   0.000000   0.000004  -0.000053  -0.000192   0.000000
    15  N   -0.000058   0.000012   0.000428  -0.005071   0.006880  -0.000011
    16  C    0.004028  -0.000114   0.003557  -0.033200  -0.001177  -0.000097
    17  C   -0.036884  -0.026134  -0.039007   0.543060  -0.030220   0.001714
    18  C    0.545345  -0.043553  -0.039635  -0.048004   0.003159   0.000320
    19  C    4.898552   0.550950  -0.046746  -0.039196   0.000065   0.002829
    20  C    0.550950   4.879367   0.543425  -0.042088   0.002449  -0.031792
    21  C   -0.046746   0.543425   4.924974   0.536285  -0.032104   0.382848
    22  C   -0.039196  -0.042088   0.536285   4.898430   0.380050  -0.027575
    23  H    0.000065   0.002449  -0.032104   0.380050   0.433435  -0.001769
    24  H    0.002829  -0.031792   0.382848  -0.027575  -0.001769   0.467098
    25  H   -0.027907   0.380645  -0.028263   0.001957  -0.000092  -0.001380
    26  H    0.382527  -0.029809   0.002648   0.000416   0.000010  -0.000124
    27  H   -0.024876   0.002182   0.000129   0.003297  -0.000115   0.000011
    28  H    0.000000   0.000000   0.000000  -0.000029  -0.000009   0.000000
    29  H    0.000000   0.000000   0.000000   0.000026   0.000002   0.000000
    30  H    0.000000   0.000000   0.000000   0.000000   0.000000   0.000000
    31  H    0.000000   0.000000   0.000000   0.000000   0.000000   0.000000
    32  H    0.000000   0.000000   0.000000   0.000000   0.000000   0.000000
    33  H    0.000000   0.000000   0.000000   0.000000   0.000000   0.000000
    34  H    0.000000   0.000000   0.000000   0.000000   0.000000   0.000000
    35  H    0.000123  -0.000026  -0.000034  -0.000102  -0.000001   0.000000
             25         26         27         28         29         30
     1  C    0.000000   0.000008   0.002928  -0.000169   0.001959   0.000106
     2  C    0.000000  -0.000004  -0.000735   0.000012   0.000020  -0.000003
     3  C    0.000000   0.000000   0.000331   0.000000   0.000036  -0.000002
     4  Cl   0.000000   0.000000   0.000019   0.000000   0.000000   0.000000
     5  C    0.000000   0.000000   0.000045   0.000000  -0.000058  -0.000063
     6  C    0.000000   0.000000  -0.000022   0.000000   0.000567   0.000307
     7  C    0.000000   0.000000  -0.000123  -0.000089   0.005961   0.001171
     8  N    0.000000   0.000000  -0.000004   0.003107  -0.005559  -0.000406
     9  C    0.000000   0.000000   0.000001   0.000005  -0.000108  -0.042957
    10  C    0.000000   0.000000   0.000000   0.000000  -0.000002   0.387132
    11  N    0.000000   0.000000   0.000000   0.000005  -0.000103   0.000180
    12  N    0.000000   0.000000   0.000000   0.002357   0.000893  -0.000068
    13  C    0.000000   0.000000  -0.000004  -0.040494  -0.044321   0.000047
    14  C    0.000000   0.000000   0.000003   0.410275   0.389536  -0.000001
    15  N    0.000000   0.000001  -0.000109  -0.033937  -0.046861  -0.000003
    16  C    0.000006  -0.000120  -0.005698   0.001455  -0.002264  -0.000012
    17  C    0.000275   0.001588  -0.033791   0.000154  -0.000674   0.000000
    18  C    0.002355  -0.029481   0.377151   0.000002  -0.000008   0.000000
    19  C   -0.027907   0.382527  -0.024876   0.000000   0.000000   0.000000
    20  C    0.380645  -0.029809   0.002182   0.000000   0.000000   0.000000
    21  C   -0.028263   0.002648   0.000129   0.000000   0.000000   0.000000
    22  C    0.001957   0.000416   0.003297  -0.000029   0.000026   0.000000
    23  H   -0.000092   0.000010  -0.000115  -0.000009   0.000002   0.000000
    24  H   -0.001380  -0.000124   0.000011   0.000000   0.000000   0.000000
    25  H    0.458098  -0.001273  -0.000097   0.000000   0.000000   0.000000
    26  H   -0.001273   0.469645  -0.001404   0.000000   0.000000   0.000000
    27  H   -0.000097  -0.001404   0.459803   0.000000  -0.000001   0.000001
    28  H    0.000000   0.000000   0.000000   0.439520  -0.024635   0.000000
    29  H    0.000000   0.000000  -0.000001  -0.024635   0.536680   0.000001
    30  H    0.000000   0.000000   0.000001   0.000000   0.000001   0.515423
    31  H    0.000000   0.000000   0.000000   0.000000  -0.000002  -0.031909
    32  H    0.000000   0.000000   0.000000   0.000000   0.000000  -0.018769
    33  H    0.000000   0.000000   0.000000   0.000000  -0.000002  -0.000160
    34  H    0.000000   0.000000   0.000001   0.000000   0.000000  -0.000002
    35  H    0.000000  -0.000001  -0.002217   0.000000  -0.000007   0.000000
             31         32         33         34         35
     1  C   -0.000095   0.000003   0.001299   0.000266  -0.030170
     2  C    0.000002   0.000000   0.000297   0.001729   0.376071
     3  C   -0.000003   0.000000   0.001924  -0.026133  -0.021395
     4  Cl   0.000000   0.000000  -0.000081  -0.000663   0.000422
     5  C    0.000337   0.000001  -0.019649   0.378943   0.001760
     6  C   -0.004200   0.000278   0.376385  -0.022193   0.000088
     7  C   -0.000939  -0.000016  -0.029984   0.001424   0.001213
     8  N    0.000068   0.002376  -0.003768  -0.000092  -0.000046
     9  C   -0.048174  -0.031842   0.002282  -0.000005   0.000000
    10  C    0.386571   0.388304  -0.003026   0.000003   0.000000
    11  N    0.000806   0.002322  -0.000015   0.000000   0.000000
    12  N   -0.000088   0.000035  -0.000014   0.000000   0.000000
    13  C    0.000131   0.000029   0.000026   0.000001  -0.000001
    14  C    0.000001   0.000001   0.000001   0.000000  -0.000010
    15  N    0.000001   0.000000   0.000000   0.000000   0.000124
    16  C    0.000002   0.000000  -0.000079   0.000003  -0.000773
    17  C    0.000000   0.000000   0.000001   0.000000   0.004766
    18  C    0.000000   0.000000   0.000000   0.000000   0.002092
    19  C    0.000000   0.000000   0.000000   0.000000   0.000123
    20  C    0.000000   0.000000   0.000000   0.000000  -0.000026
    21  C    0.000000   0.000000   0.000000   0.000000  -0.000034
    22  C    0.000000   0.000000   0.000000   0.000000  -0.000102
    23  H    0.000000   0.000000   0.000000   0.000000  -0.000001
    24  H    0.000000   0.000000   0.000000   0.000000   0.000000
    25  H    0.000000   0.000000   0.000000   0.000000   0.000000
    26  H    0.000000   0.000000   0.000000   0.000000  -0.000001
    27  H    0.000000   0.000000   0.000000   0.000001  -0.002217
    28  H    0.000000   0.000000   0.000000   0.000000   0.000000
    29  H   -0.000002   0.000000  -0.000002   0.000000  -0.000007
    30  H   -0.031909  -0.018769  -0.000160  -0.000002   0.000000
    31  H    0.550526  -0.020879   0.000765   0.000007   0.000000
    32  H   -0.020879   0.449947   0.000081   0.000000   0.000000
    33  H    0.000765   0.000081   0.420757  -0.000744   0.000007
    34  H    0.000007   0.000000  -0.000744   0.415229  -0.000078
    35  H    0.000000   0.000000   0.000007  -0.000078   0.390065
 Mulliken atomic charges:
              1
     1  C   -0.054234
     2  C   -0.192697
     3  C   -0.147015
     4  Cl   0.011557
     5  C   -0.176976
     6  C   -0.215903
     7  C    0.338764
     8  N   -0.763045
     9  C    0.464241
    10  C   -0.519932
    11  N   -0.334560
    12  N   -0.358422
    13  C    0.490287
    14  C   -0.202329
    15  N   -0.520021
    16  C    0.301509
    17  C   -0.006754
    18  C   -0.227040
    19  C   -0.208865
    20  C   -0.185515
    21  C   -0.208380
    22  C   -0.176886
    23  H    0.239229
    24  H    0.207927
    25  H    0.215677
    26  H    0.205374
    27  H    0.223292
    28  H    0.242473
    29  H    0.188926
    30  H    0.189986
    31  H    0.167071
    32  H    0.228130
    33  H    0.253699
    34  H    0.252305
    35  H    0.278130
 Sum of Mulliken charges=   0.00000
 Atomic charges with hydrogens summed into heavy atoms:
              1
     1  C   -0.054234
     2  C    0.085433
     3  C   -0.147015
     4  Cl   0.011557
     5  C    0.075329
     6  C    0.037796
     7  C    0.338764
     8  N   -0.763045
     9  C    0.464241
    10  C    0.065255
    11  N   -0.334560
    12  N   -0.358422
    13  C    0.490287
    14  C    0.229069
    15  N   -0.520021
    16  C    0.301509
    17  C   -0.006754
    18  C   -0.003748
    19  C   -0.003492
    20  C    0.030162
    21  C   -0.000454
    22  C    0.062343
    23  H    0.000000
    24  H    0.000000
    25  H    0.000000
    26  H    0.000000
    27  H    0.000000
    28  H    0.000000
    29  H    0.000000
    30  H    0.000000
    31  H    0.000000
    32  H    0.000000
    33  H    0.000000
    34  H    0.000000
    35  H    0.000000
 Sum of Mulliken charges=   0.00000
 Entering OneElI...
 OneElI was handed  6089837 working-precision words.
 Multipole integrals L=0 to 4 MinM= 0 MaxM= 0.
 Requested accuracy = 0.1000D-12
 PrsmSu:  NPrtUS=   1 ThrOK=F
 PRISM was handed     5609156 working-precision words and  5225 shell-pairs
 Electronic moments (au):
  -160.00000000     1.09358552     1.96127456     0.27883085
 -3619.90240880 -2718.62361310  -675.04397111   -18.96086391
     0.55803374     3.57591074 -3277.69143503 -8126.62147191
  -486.69093115 -1863.48622997  7476.84826953 -4366.06035038
   543.09758856   861.88425306  1672.34021750   866.63602985
****************************** -9641.83262094 19307.56759941
 -3337.91011304-12888.31595208  5060.80547933  1179.86683766
 -1433.87100351-44260.93797513-20477.57201690 -6411.84690339
  4808.00190590   718.09554884   -87.73606769
 Electronic spatial extent (au):  <R**2>=  7013.5700
 Nuclear    moments (au):
   160.00000000     0.00000000     0.00000000     0.00000000
  3519.27232233  2606.94968894   579.56721091     0.00000000
     0.00000000     0.00000000  3420.73819292  8190.05050118
   486.39680098  1920.09312192 -7400.91117926  4408.56930224
  -551.90367272  -866.94336094 -1676.53815966  -875.67477917
157015.64781123103621.85507614  7288.73855298-20446.16902077
  3496.00195292 12315.28257922 -4929.53563053 -1171.19967321
  1502.91170445 40233.02660308 18041.09872528  4364.27264521
 -4778.60284452  -752.99289104   147.00741990
 Total      moments (au):
     0.00000000     1.09358552     1.96127456     0.27883085
  -100.63008646  -111.67392416   -95.47676020   -18.96086391
     0.55803374     3.57591074   143.04675790    63.42902927
    -0.29413017    56.60689195    75.93709027    42.50895186
    -8.80608416    -5.05910788    -4.19794216    -9.03874931
-13294.93662153-10006.12683124 -2353.09406796 -1138.60142136
   158.09183988  -573.03337286   131.26984880     8.66716445
    69.04070094 -4027.91137206 -2436.47329162 -2047.57425817
    29.39906138   -34.89734220    59.27135221
 Charge=     0.0000 electrons
 Dipole moment (field-independent basis, Debye):
    X=     2.7796    Y=     4.9851    Z=     0.7087  Tot=     5.7515
 Quadrupole moment (field-independent basis, Debye-Ang):
   XX=  -135.3509   YY=  -150.2052   ZZ=  -128.4195
   XY=   -25.5030   XZ=     0.7506   YZ=     4.8097
 Traceless Quadrupole moment (field-independent basis, Debye-Ang):
   XX=     2.6410   YY=   -12.2134   ZZ=     9.5724
   XY=   -25.5030   XZ=     0.7506   YZ=     4.8097
 Octapole moment (field-independent basis, Debye-Ang**2):
  XXX=   101.8152  YYY=    45.1463  ZZZ=    -0.2094  XYY=    40.2906
  XXY=    54.0491  XXZ=    30.2562  XZZ=    -6.2678  YZZ=    -3.6009
  YYZ=    -2.9879  XYZ=    -6.4334
 Hexadecapole moment (field-independent basis, Debye-Ang**3):
 XXXX= -5007.5102 YYYY= -3768.7869 ZZZZ=  -886.2880 XXXY=  -428.8519
 XXXZ=    59.5450 YYYX=  -215.8318 YYYZ=    49.4425 ZZZX=     3.2645
 ZZZY=    26.0040 XXYY= -1517.1044 XXZZ=  -917.6926 YYZZ=  -771.2146
 XXYZ=    11.0731 YYXZ=   -13.1440 ZZXY=    22.3244
 N-N= 1.820791198884D+03 E-N=-6.760214802707D+03  KE= 1.326800068424D+03
 Entering OneElI...
 OneElI was handed  5829402 working-precision words.
 Calculate electrostatic properties
    NBasis =   360  MinDer = 0  MaxDer = 0
    NGrid  =    35  NMatD  =   1
 Requested accuracy = 0.1000D-12
 PrsmSu:  NPrtUS=   1 ThrOK=F
 PRISM was handed     5392845 working-precision words and  4680 shell-pairs
 --------------------------------------------------------
       Center         ----      EFG at Nuclei      ----
                      3XX-RR        3YY-RR        3ZZ-RR
 --------------------------------------------------------
     1   Atom        0.064865      0.164923     -0.229787
     2   Atom        0.152872      0.152515     -0.305387
     3   Atom        0.159870     -0.085754     -0.074116
     4   Atom        0.483205     -2.237154      1.753949
     5   Atom        0.114481      0.195648     -0.310130
     6   Atom        0.116361      0.158409     -0.274770
     7   Atom        0.109383      0.035399     -0.144782
     8   Atom        0.044786     -0.076995      0.032209
     9   Atom       -0.117310      0.124139     -0.006829
    10   Atom        0.051921      0.017151     -0.069072
    11   Atom        0.320611     -0.109676     -0.210935
    12   Atom       -0.376321      0.668144     -0.291823
    13   Atom        0.055572     -0.079496      0.023924
    14   Atom       -0.184141      0.173692      0.010448
    15   Atom       -0.179684      0.749856     -0.570172
    16   Atom        0.145670      0.086939     -0.232609
    17   Atom        0.015405      0.006982     -0.022387
    18   Atom        0.058077     -0.043056     -0.015021
    19   Atom        0.063291     -0.031980     -0.031311
    20   Atom        0.036160     -0.025630     -0.010530
    21   Atom        0.055819     -0.051424     -0.004395
    22   Atom        0.075002     -0.065594     -0.009408
    23   Atom        0.122084      0.015899     -0.137983
    24   Atom        0.005136     -0.102785      0.097650
    25   Atom       -0.196942      0.134876      0.062066
    26   Atom        0.114783      0.022879     -0.137663
    27   Atom        0.012223     -0.109594      0.097371
    28   Atom        0.119354     -0.150431      0.031077
    29   Atom        0.137424     -0.116803     -0.020621
    30   Atom       -0.114200      0.142674     -0.028474
    31   Atom        0.111030     -0.211008      0.099977
    32   Atom       -0.095120      0.047931      0.047189
    33   Atom       -0.274351      0.137589      0.136762
    34   Atom        0.063723     -0.210119      0.146397
    35   Atom       -0.273311      0.137591      0.135720
 --------------------------------------------------------
                        XY            XZ            YZ
 --------------------------------------------------------
     1   Atom        0.008550     -0.095391      0.023826
     2   Atom        0.020188     -0.115376      0.023263
     3   Atom       -0.278257     -0.090273      0.070384
     4   Atom       -2.411109      0.116460      0.275980
     5   Atom        0.024466     -0.120048      0.035415
     6   Atom        0.027890     -0.116269      0.049505
     7   Atom       -0.185402     -0.105845      0.077226
     8   Atom       -0.340816      0.292552     -0.180299
     9   Atom        0.009353      0.043121      0.179841
    10   Atom        0.057177      0.038996     -0.075552
    11   Atom        0.600243     -0.525027     -0.349356
    12   Atom        0.347478      0.215423      0.526112
    13   Atom        0.106860     -0.193454     -0.054006
    14   Atom        0.047413     -0.060046      0.011453
    15   Atom       -0.703639      0.086834      0.158822
    16   Atom       -0.101161      0.213294      0.161645
    17   Atom       -0.105792      0.078491      0.204764
    18   Atom       -0.146003      0.176251      0.190862
    19   Atom       -0.163453      0.125992      0.173519
    20   Atom       -0.159172      0.143769      0.245936
    21   Atom       -0.128456      0.160133      0.190953
    22   Atom       -0.170520      0.169231      0.216411
    23   Atom       -0.057402     -0.100705     -0.202536
    24   Atom        0.199788      0.082264     -0.128247
    25   Atom        0.086528     -0.182758      0.033734
    26   Atom       -0.059552     -0.106901     -0.204102
    27   Atom        0.196533      0.073722     -0.122556
    28   Atom       -0.062427     -0.039532     -0.180326
    29   Atom        0.012834     -0.010470      0.204662
    30   Atom       -0.032124     -0.206149     -0.032039
    31   Atom        0.120567     -0.030205      0.116815
    32   Atom       -0.149797      0.151662      0.089957
    33   Atom        0.011152      0.114326     -0.000850
    34   Atom        0.166465      0.041160     -0.076589
    35   Atom        0.012357      0.107816     -0.003896
 --------------------------------------------------------


 ---------------------------------------------------------------------------------
              Nuclear Quadrupole in Principal Axis System
 ---------------------------------------------------------------------------------

       Atom             a.u.   MegaHertz   Gauss  10(-4) cm-1        Axes

              Baa    -0.2595   -34.819   -12.424   -11.615  0.2831 -0.0594  0.9572
     1 C(13)  Bbb     0.0930    12.483     4.454     4.164  0.9584 -0.0196 -0.2847
              Bcc     0.1665    22.337     7.970     7.451  0.0357  0.9980  0.0514
 
              Baa    -0.3343   -44.864   -16.008   -14.965  0.2323 -0.0560  0.9710
     2 C(13)  Bbb     0.1478    19.833     7.077     6.616 -0.3787  0.9144  0.1433
              Bcc     0.1865    25.030     8.931     8.349  0.8959  0.4010 -0.1912
 
              Baa    -0.2676   -35.915   -12.815   -11.980  0.5363  0.8422 -0.0561
     3 C(13)  Bbb    -0.1028   -13.801    -4.924    -4.603  0.2392 -0.0879  0.9670
              Bcc     0.3705    49.715    17.740    16.583  0.8094 -0.5320 -0.2486
 
              Baa    -3.6616  -191.638   -68.381   -63.924  0.5032  0.8624 -0.0548
     4 Cl(35) Bbb     1.7590    92.062    32.850    30.709  0.2681 -0.0956  0.9586
              Bcc     1.9026    99.576    35.531    33.215  0.8215 -0.4971 -0.2793
 
              Baa    -0.3448   -46.263   -16.508   -15.432  0.2559 -0.0747  0.9638
     5 C(13)  Bbb     0.1423    19.094     6.813     6.369  0.9309 -0.2499 -0.2666
              Bcc     0.2025    27.169     9.694     9.062  0.2608  0.9654  0.0056
 
              Baa    -0.3132   -42.025   -14.995   -14.018  0.2665 -0.1162  0.9568
     6 C(13)  Bbb     0.1406    18.867     6.732     6.293  0.8239 -0.4877 -0.2887
              Bcc     0.1726    23.157     8.263     7.724  0.5001  0.8653 -0.0342
 
              Baa    -0.1840   -24.693    -8.811    -8.237  0.2833 -0.0965  0.9542
     7 C(13)  Bbb    -0.1159   -15.556    -5.551    -5.189  0.6040  0.7907 -0.0993
              Bcc     0.2999    40.249    14.362    13.426  0.7449 -0.6045 -0.2823
 
              Baa    -0.3725   -14.368    -5.127    -4.793  0.7003  0.6849 -0.2011
     8 N(14)  Bbb    -0.1807    -6.968    -2.486    -2.324 -0.2722  0.5167  0.8117
              Bcc     0.5532    21.336     7.613     7.117  0.6599 -0.5137  0.5483
 
              Baa    -0.1570   -21.062    -7.515    -7.025 -0.6278 -0.4045  0.6650
     9 C(13)  Bbb    -0.0959   -12.875    -4.594    -4.295  0.7734 -0.4205  0.4744
              Bcc     0.2529    33.937    12.109    11.320  0.0877  0.8121  0.5769
 
              Baa    -0.1344   -18.035    -6.435    -6.016 -0.3245  0.5172  0.7919
    10 C(13)  Bbb     0.0384     5.147     1.837     1.717  0.5867 -0.5467  0.5974
              Bcc     0.0960    12.888     4.599     4.299  0.7419  0.6585 -0.1261
 
              Baa    -0.5436   -20.966    -7.481    -6.994  0.6755 -0.4924  0.5489
    11 N(14)  Bbb    -0.5131   -19.787    -7.061    -6.600 -0.0615  0.7041  0.7074
              Bcc     1.0567    40.754    14.542    13.594  0.7348  0.5116 -0.4453
 
              Baa    -0.5656   -21.815    -7.784    -7.277 -0.5834 -0.1740  0.7933
    12 N(14)  Bbb    -0.4524   -17.449    -6.226    -5.820  0.7627 -0.4532  0.4615
              Bcc     1.0181    39.264    14.010    13.097  0.2792  0.8743  0.3971
 
              Baa    -0.1722   -23.104    -8.244    -7.707  0.6886 -0.4742  0.5487
    13 C(13)  Bbb    -0.0997   -13.379    -4.774    -4.463  0.1247  0.8227  0.5546
              Bcc     0.2719    36.483    13.018    12.169  0.7144  0.3134 -0.6256
 
              Baa    -0.2074   -27.833    -9.931    -9.284  0.9545 -0.1269  0.2698
    14 C(13)  Bbb     0.0275     3.685     1.315     1.229 -0.2704  0.0123  0.9627
              Bcc     0.1799    24.147     8.616     8.055  0.1254  0.9918  0.0226
 
              Baa    -0.7188   -27.722    -9.892    -9.247 -0.5859 -0.3593  0.7264
    15 N(14)  Bbb    -0.4154   -16.019    -5.716    -5.343  0.6613  0.3060  0.6848
              Bcc     1.1341    43.741    15.608    14.590 -0.4683  0.8816  0.0583
 
              Baa    -0.4017   -53.909   -19.236   -17.982 -0.3957 -0.3612  0.8443
    16 C(13)  Bbb     0.1534    20.580     7.343     6.865  0.0964  0.8980  0.4294
              Bcc     0.2484    33.329    11.893    11.117  0.9133 -0.2514  0.3205
 
              Baa    -0.2717   -36.458   -13.009   -12.161 -0.4126 -0.6359  0.6522
    17 C(13)  Bbb     0.0702     9.415     3.359     3.140  0.8964 -0.1560  0.4150
              Bcc     0.2015    27.043     9.650     9.021 -0.1621  0.7558  0.6344
 
              Baa    -0.3478   -46.675   -16.655   -15.569  0.4894  0.6191 -0.6142
    18 C(13)  Bbb     0.1457    19.549     6.976     6.521 -0.4678  0.7808  0.4143
              Bcc     0.2021    27.126     9.679     9.048  0.7360  0.0846  0.6717
 
[...]
 9214 Fit       0.009266
 9215 Fit       0.008649
 9216 Fit       0.008289
 9217 Fit       0.008162
 9218 Fit       0.008270
 9219 Fit       0.008647
 9220 Fit       0.009361
 9221 Fit       0.010514
 9222 Fit       0.007180
 9223 Fit       0.006705
 9224 Fit       0.006499
 9225 Fit       0.006546
 9226 Fit       0.013243
 9227 Fit       0.014524
 9228 Fit       0.014122
 9229 Fit       0.013054
 9230 Fit       0.011560
 9231 Fit       0.015274
 9232 Fit       0.014877
 9233 Fit       0.014820
 9234 Fit       0.014517
 9235 Fit       0.013403
 9236 Fit       0.011477
 9237 Fit       0.009583
 9238 Fit       0.015382
 9239 Fit       0.014903
 9240 Fit       0.015000
 9241 Fit       0.015342
 9242 Fit       0.015587
 9243 Fit       0.015336
 9244 Fit       0.014215
 9245 Fit       0.012187
 9246 Fit       0.009697
 9247 Fit       0.014670
 9248 Fit       0.014356
 9249 Fit       0.014604
 9250 Fit       0.015175
 9251 Fit       0.015878
 9252 Fit       0.016506
 9253 Fit       0.016751
 9254 Fit       0.016183
 9255 Fit       0.014503
 9256 Fit       0.011885
 9257 Fit       0.008857
 9258 Fit       0.013366
 9259 Fit       0.013414
 9260 Fit       0.013901
 9261 Fit       0.014677
 9262 Fit       0.015633
 9263 Fit       0.016675
 9264 Fit       0.017662
 9265 Fit       0.018266
 9266 Fit       0.017911
 9267 Fit       0.016145
 9268 Fit       0.013155
 9269 Fit       0.009571
 9270 Fit       0.011856
 9271 Fit       0.012213
 9272 Fit       0.012876
 9273 Fit       0.013768
 9274 Fit       0.014830
 9275 Fit       0.016040
 9276 Fit       0.017389
 9277 Fit       0.018794
 9278 Fit       0.019900
 9279 Fit       0.014894
 9280 Fit       0.010828
 9281 Fit       0.010511
 9282 Fit       0.011200
 9283 Fit       0.012082
 9284 Fit       0.013108
 9285 Fit       0.014290
 9286 Fit       0.015684
 9287 Fit       0.017315
 9288 Fit       0.011852
 9289 Fit       0.008769
 9290 Fit      -0.023555
 9291 Fit      -0.022326
 9292 Fit      -0.023596
 9293 Fit      -0.020382
 9294 Fit      -0.018667
 9295 Fit      -0.018424
 9296 Fit      -0.020876
 9297 Fit      -0.017848
 9298 Fit      -0.015812
 9299 Fit      -0.014767
 9300 Fit      -0.014731
 9301 Fit      -0.015766
 9302 Fit      -0.019533
 9303 Fit      -0.016654
 9304 Fit      -0.014293
 9305 Fit      -0.012575
 9306 Fit      -0.011557
 9307 Fit      -0.011263
 9308 Fit      -0.011706
 9309 Fit      -0.012892
 9310 Fit      -0.018090
 9311 Fit      -0.017112
 9312 Fit      -0.015384
 9313 Fit      -0.013404
 9314 Fit      -0.011533
 9315 Fit      -0.009999
 9316 Fit      -0.008924
 9317 Fit      -0.008364
 9318 Fit      -0.008327
 9319 Fit      -0.008777
 9320 Fit      -0.009621
 9321 Fit      -0.009446
 9322 Fit      -0.011104
 9323 Fit      -0.011579
 9324 Fit      -0.011124
 9325 Fit      -0.010098
 9326 Fit      -0.008847
 9327 Fit      -0.007641
 9328 Fit      -0.006659
 9329 Fit      -0.005998
 9330 Fit      -0.005688
 9331 Fit      -0.005698
 9332 Fit      -0.005933
 9333 Fit      -0.006226
 9334 Fit      -0.002744
 9335 Fit      -0.005115
 9336 Fit      -0.006498
 9337 Fit      -0.006933
 9338 Fit      -0.006643
 9339 Fit      -0.005932
 9340 Fit      -0.005088
 9341 Fit      -0.004323
 9342 Fit      -0.003760
 9343 Fit      -0.003431
 9344 Fit      -0.003284
 9345 Fit      -0.003183
 9346 Fit      -0.002917
 9347 Fit      -0.000082
 9348 Fit      -0.002039
 9349 Fit      -0.003187
 9350 Fit      -0.003563
 9351 Fit      -0.003372
 9352 Fit      -0.002880
 9353 Fit      -0.002322
 9354 Fit      -0.001841
 9355 Fit      -0.001471
 9356 Fit      -0.001142
 9357 Fit      -0.000692
 9358 Fit       0.000094
 9359 Fit       0.002869
 9360 Fit       0.000885
 9361 Fit      -0.000442
 9362 Fit      -0.001027
 9363 Fit      -0.001027
 9364 Fit      -0.000704
 9365 Fit      -0.000277
 9366 Fit       0.000172
 9367 Fit       0.000712
 9368 Fit       0.001517
 9369 Fit       0.003505
 9370 Fit       0.004106
 9371 Fit       0.002295
 9372 Fit       0.001137
 9373 Fit       0.000789
 9374 Fit       0.000996
 9375 Fit       0.001500
 9376 Fit       0.002292
 9377 Fit       0.003797
 9378 Fit       0.005014
 9379 Fit       0.004741
 9380 Fit       0.003206
 9381 Fit       0.002326
 9382 Fit       0.002647
 9383 Fit       0.003695
 9384 Fit       0.013586
 9385 Fit       0.011861
 9386 Fit       0.012354
 9387 Fit       0.012823
 9388 Fit       0.013073
 9389 Fit       0.012818
 9390 Fit       0.011840
 9391 Fit       0.010054
 9392 Fit       0.011508
 9393 Fit       0.011769
 9394 Fit       0.011597
 9395 Fit       0.011470
 9396 Fit       0.011577
 9397 Fit       0.011856
 9398 Fit       0.012179
 9399 Fit       0.012428
 9400 Fit       0.012462
 9401 Fit       0.012107
 9402 Fit       0.011212
 9403 Fit       0.009711
 9404 Fit       0.007633
 9405 Fit       0.009759
 9406 Fit       0.010773
 9407 Fit       0.011229
 9408 Fit       0.011399
 9409 Fit       0.011527
 9410 Fit       0.011706
 9411 Fit       0.011904
 9412 Fit       0.012025
 9413 Fit       0.011958
 9414 Fit       0.011579
 9415 Fit       0.010791
 9416 Fit       0.009552
 9417 Fit       0.007904
 9418 Fit       0.005988
 9419 Fit       0.008407
 9420 Fit       0.009671
 9421 Fit       0.010498
 9422 Fit       0.010971
 9423 Fit       0.011253
 9424 Fit       0.011454
 9425 Fit       0.011579
 9426 Fit       0.011556
 9427 Fit       0.011285
 9428 Fit       0.010672
 9429 Fit       0.009675
 9430 Fit       0.008334
 9431 Fit       0.006795
 9432 Fit       0.007467
 9433 Fit       0.008661
 9434 Fit       0.009648
 9435 Fit       0.010337
 9436 Fit       0.010768
 9437 Fit       0.011014
 9438 Fit       0.011092
 9439 Fit       0.010953
 9440 Fit       0.010521
 9441 Fit       0.009750
 9442 Fit       0.008675
 9443 Fit       0.007439
 9444 Fit       0.006304
 9445 Fit       0.007902
 9446 Fit       0.008866
 9447 Fit       0.009667
 9448 Fit       0.010200
 9449 Fit       0.010464
 9450 Fit       0.010450
 9451 Fit       0.010113
 9452 Fit       0.009429
 9453 Fit       0.008469
 9454 Fit       0.007451
 9455 Fit       0.008172
 9456 Fit       0.009013
 9457 Fit       0.009614
 9458 Fit       0.009803
 9459 Fit       0.009516
 9460 Fit       0.008789
 9461 Fit       0.007888
 9462 Fit       0.007253
 9463 Fit       0.008303
 9464 Fit       0.008972
 9465 Fit       0.008909
 9466 Fit       0.008167
 9467 Fit       0.007654
 9468 Fit       0.007711
 9469 Fit       0.008303
 9470 Fit       0.011832
 9471 Fit       0.012187
 9472 Fit       0.012827
 9473 Fit       0.012542
 9474 Fit       0.011084
 9475 Fit       0.012699
 9476 Fit       0.013509
 9477 Fit       0.013811
 9478 Fit       0.013695
 9479 Fit       0.013253
 9480 Fit       0.010266
 9481 Fit       0.011470
 9482 Fit       0.013344
 9483 Fit       0.014173
 9484 Fit       0.014605
 9485 Fit       0.014747
 9486 Fit       0.014681
 9487 Fit       0.014434
 9488 Fit       0.009354
 9489 Fit       0.010669
 9490 Fit       0.012113
 9491 Fit       0.014124
 9492 Fit       0.014951
 9493 Fit       0.015380
 9494 Fit       0.015559
 9495 Fit       0.015610
 9496 Fit       0.015574
 9497 Fit       0.015430
 9498 Fit       0.015156
 9499 Fit       0.008121
 9500 Fit       0.009581
 9501 Fit       0.011254
 9502 Fit       0.012851
 9503 Fit       0.015067
 9504 Fit       0.015863
 9505 Fit       0.016204
 9506 Fit       0.016302
 9507 Fit       0.016343
 9508 Fit       0.016400
 9509 Fit       0.016448
 9510 Fit       0.016423
 9511 Fit       0.008075
 9512 Fit       0.009982
 9513 Fit       0.011949
 9514 Fit       0.013725
 9515 Fit       0.016229
 9516 Fit       0.016928
 9517 Fit       0.017085
 9518 Fit       0.016992
 9519 Fit       0.016909
 9520 Fit       0.016968
 9521 Fit       0.017163
 9522 Fit       0.017400
 9523 Fit       0.017568
 9524 Fit       0.008452
 9525 Fit       0.010695
 9526 Fit       0.012910
 9527 Fit       0.014847
 9528 Fit       0.017666
 9529 Fit       0.018190
 9530 Fit       0.017996
 9531 Fit       0.017550
 9532 Fit       0.017238
 9533 Fit       0.017262
 9534 Fit       0.017631
 9535 Fit       0.018195
 9536 Fit       0.018749
 9537 Fit       0.008615
 9538 Fit       0.011280
 9539 Fit       0.013905
 9540 Fit       0.016174
 9541 Fit       0.019351
 9542 Fit       0.019533
 9543 Fit       0.018810
 9544 Fit       0.017853
 9545 Fit       0.017167
 9546 Fit       0.017055
 9547 Fit       0.018626
 9548 Fit       0.019786
 9549 Fit       0.009173
 9550 Fit       0.012237
 9551 Fit       0.015263
 9552 Fit       0.017839
 9553 Fit       0.013402
 9554 Fit       0.015958
 9555 Fit       0.014823
 9556 Fit       0.013580
 9557 Fit       0.018190
 9558 Fit       0.017171
 9559 Fit       0.015971
 9560 Fit       0.014638
 9561 Fit       0.013215
 9562 Fit       0.011760
 9563 Fit       0.020659
 9564 Fit       0.019788
 9565 Fit       0.018662
 9566 Fit       0.017364
 9567 Fit       0.015946
 9568 Fit       0.014439
 9569 Fit       0.012860
 9570 Fit       0.011235
 9571 Fit       0.009612
 9572 Fit       0.023308
 9573 Fit       0.022390
 9574 Fit       0.021090
 9575 Fit       0.019586
 9576 Fit       0.017977
 9577 Fit       0.016304
 9578 Fit       0.014571
 9579 Fit       0.012773
 9580 Fit       0.010904
 9581 Fit       0.008976
 9582 Fit       0.025869
 9583 Fit       0.024242
 9584 Fit       0.022375
 9585 Fit       0.020450
 9586 Fit       0.018531
 9587 Fit       0.016617
 9588 Fit       0.014681
 9589 Fit       0.012690
 9590 Fit       0.010613
 9591 Fit       0.008425
 9592 Fit       0.006113
 9593 Fit       0.025305
 9594 Fit       0.022806
 9595 Fit       0.020457
 9596 Fit       0.018227
 9597 Fit       0.016054
 9598 Fit       0.013875
 9599 Fit       0.011628
 9600 Fit       0.009256
 9601 Fit       0.006701
 9602 Fit       0.003899
 9603 Fit       0.023778
 9604 Fit       0.020891
 9605 Fit       0.018250
 9606 Fit       0.015726
 9607 Fit       0.013208
 9608 Fit       0.010596
 9609 Fit       0.007790
 9610 Fit       0.004678
 9611 Fit       0.023219
 9612 Fit       0.019903
 9613 Fit       0.016888
 9614 Fit       0.013973
 9615 Fit       0.010997
 9616 Fit       0.007804
 9617 Fit       0.004217
 9618 Fit       0.021877
 9619 Fit       0.018275
 9620 Fit       0.014935
 9621 Fit       0.011607
 9622 Fit       0.008074
 9623 Fit       0.004099
 9624 Fit       0.020944
 9625 Fit       0.016804
 9626 Fit       0.012887
 9627 Fit       0.008839
 9628 Fit       0.004317
 9629 Fit       0.019298
 9630 Fit       0.014682
 9631 Fit       0.010136
 9632 Fit       0.005209
 9633 Fit       0.014855
 9634 Fit       0.007733
 9635 Fit       0.008090
 9636 Fit       0.009095
 9637 Fit       0.008664
 9638 Fit       0.007369
 9639 Fit       0.006344
 9640 Fit       0.006633
 9641 Fit       0.009482
 9642 Fit       0.008277
 9643 Fit       0.006935
 9644 Fit       0.005682
 9645 Fit       0.004803
 9646 Fit       0.004616
 9647 Fit       0.005305
 9648 Fit       0.006755
 9649 Fit       0.009042
 9650 Fit       0.007732
 9651 Fit       0.006384
 9652 Fit       0.005066
 9653 Fit       0.003884
 9654 Fit       0.002994
 9655 Fit       0.002580
 9656 Fit       0.002792
 9657 Fit       0.003683
 9658 Fit       0.005180
 9659 Fit       0.009239
 9660 Fit       0.007830
 9661 Fit       0.006396
 9662 Fit       0.004954
 9663 Fit       0.003535
 9664 Fit       0.002209
 9665 Fit       0.001091
 9666 Fit       0.000331
 9667 Fit       0.000078
 9668 Fit       0.000443
 9669 Fit       0.001456
 9670 Fit       0.003063
 9671 Fit       0.008769
 9672 Fit       0.007177
 9673 Fit       0.005580
 9674 Fit       0.003970
 9675 Fit       0.002350
 9676 Fit       0.000759
 9677 Fit      -0.000718
 9678 Fit      -0.001954
 9679 Fit      -0.002789
 9680 Fit      -0.003069
 9681 Fit      -0.002683
 9682 Fit      -0.001594
 9683 Fit       0.000151
 9684 Fit       0.008114
 9685 Fit       0.006328
 9686 Fit       0.004554
 9687 Fit       0.002759
 9688 Fit       0.000925
 9689 Fit      -0.000931
 9690 Fit      -0.002756
 9691 Fit      -0.004444
 9692 Fit      -0.005850
 9693 Fit      -0.006799
 9694 Fit      -0.007124
 9695 Fit      -0.006704
 9696 Fit      -0.005499
 9697 Fit      -0.003556
 9698 Fit       0.005453
 9699 Fit       0.003354
 9700 Fit       0.001223
 9701 Fit      -0.000981
 9702 Fit      -0.003265
 9703 Fit      -0.005587
 9704 Fit      -0.007845
 9705 Fit      -0.009875
 9706 Fit      -0.011457
 9707 Fit      -0.012349
 9708 Fit      -0.012344
 9709 Fit      -0.011325
 9710 Fit      -0.009300
 9711 Fit       0.004369
 9712 Fit       0.001900
 9713 Fit      -0.000618
 9714 Fit      -0.003258
 9715 Fit      -0.006051
 9716 Fit      -0.008978
 9717 Fit      -0.011954
 9718 Fit      -0.014806
 9719 Fit      -0.017275
 9720 Fit      -0.019030
 9721 Fit       0.001687
 9722 Fit      -0.001309
 9723 Fit      -0.004449
 9724 Fit      -0.007829
 9725 Fit      -0.011492
 9726 Fit      -0.015419
 9727 Fit      -0.019489
 9728 Fit      -0.005619
 9729 Fit      -0.009871
 9730 Fit      -0.014623
 9731 Fit      -0.014779
 9732 Fit       0.025423
 9733 Fit       0.025830
 9734 Fit       0.026176
 9735 Fit       0.026990
 9736 Fit       0.026604
 9737 Fit       0.026666
 9738 Fit       0.027364
 9739 Fit       0.026706
 9740 Fit       0.026610
 9741 Fit       0.027359
 9742 Fit       0.026428
 9743 Fit       0.026077
 9744 Fit       0.026232
 9745 Fit       0.028655
 9746 Fit       0.026818
 9747 Fit       0.025773
 9748 Fit       0.025236
 9749 Fit       0.025065
 9750 Fit       0.026863
 9751 Fit       0.025408
 9752 Fit       0.024519
 9753 Fit       0.023967
 9754 Fit       0.023611
 9755 Fit       0.023348
 9756 Fit       0.025334
 9757 Fit       0.024037
 9758 Fit       0.023166
 9759 Fit       0.022509
 9760 Fit       0.021915
 9761 Fit       0.021253
 9762 Fit       0.020384
 9763 Fit       0.024481
 9764 Fit       0.023082
 9765 Fit       0.022100
 9766 Fit       0.021307
 9767 Fit       0.020539
 9768 Fit       0.019653
 9769 Fit       0.018520
 9770 Fit       0.017033
 9771 Fit       0.021846
 9772 Fit       0.020902
 9773 Fit       0.020091
 9774 Fit       0.019270
 9775 Fit       0.018315
 9776 Fit       0.017129
 9777 Fit       0.015659
 9778 Fit       0.019700
 9779 Fit       0.018947
 9780 Fit       0.018147
 9781 Fit       0.017202
 9782 Fit       0.016047
 9783 Fit       0.014696
 9784 Fit       0.017027
 9785 Fit       0.016216
 9786 Fit       0.015234
 9787 Fit       0.016808
 9788 Fit       0.018521
 9789 Fit       0.020018
 9790 Fit       0.014023
 9791 Fit       0.015763
 9792 Fit       0.017475
 9793 Fit       0.019056
 9794 Fit       0.020530
 9795 Fit       0.021950
 9796 Fit       0.015013
 9797 Fit       0.016829
 9798 Fit       0.018449
 9799 Fit       0.019923
 9800 Fit       0.021353
 9801 Fit       0.022862
 9802 Fit       0.024545
 9803 Fit       0.014596
 9804 Fit       0.016541
 9805 Fit       0.018205
 9806 Fit       0.019676
 9807 Fit       0.021064
 9808 Fit       0.022509
 9809 Fit       0.024178
 9810 Fit       0.026256
 9811 Fit       0.014133
 9812 Fit       0.016165
 9813 Fit       0.017850
 9814 Fit       0.019300
 9815 Fit       0.020623
 9816 Fit       0.021940
 9817 Fit       0.023404
 9818 Fit       0.025210
 9819 Fit       0.027625
 9820 Fit       0.014684
 9821 Fit       0.016655
 9822 Fit       0.018269
 9823 Fit       0.019656
 9824 Fit       0.020935
 9825 Fit       0.022239
 9826 Fit       0.023734
 9827 Fit       0.025655
 9828 Fit       0.028352
 9829 Fit       0.015184
 9830 Fit       0.017012
 9831 Fit       0.018509
 9832 Fit       0.019804
 9833 Fit       0.021013
 9834 Fit       0.022266
 9835 Fit       0.023728
 9836 Fit       0.025635
 9837 Fit       0.028362
 9838 Fit       0.014017
 9839 Fit       0.016022
 9840 Fit       0.017615
 9841 Fit       0.018944
 9842 Fit       0.020125
 9843 Fit       0.021276
 9844 Fit       0.022531
 9845 Fit       0.024073
 9846 Fit       0.026168
 9847 Fit       0.013902
 9848 Fit       0.015886
 9849 Fit       0.017443
 9850 Fit       0.018732
 9851 Fit       0.019877
 9852 Fit       0.021002
 9853 Fit       0.022251
 9854 Fit       0.023816
 9855 Fit       0.025973
 9856 Fit       0.014316
 9857 Fit       0.016119
 9858 Fit       0.017537
 9859 Fit       0.018721
 9860 Fit       0.019803
 9861 Fit       0.020915
 9862 Fit       0.022213
 9863 Fit       0.012502
 9864 Fit       0.014583
 9865 Fit       0.016151
 9866 Fit       0.017390
 9867 Fit       0.018435
 9868 Fit       0.019405
 9869 Fit       0.020414
 9870 Fit       0.013979
 9871 Fit       0.015517
 9872 Fit       0.016687
 9873 Fit       0.017625
 9874 Fit       0.018431
 9875 Fit       0.013339
 9876 Fit       0.014757
 9877 Fit       0.015762
 9878 Fit       0.002632
 9879 Fit       0.003179
 9880 Fit       0.002220
 9881 Fit       0.004007
 9882 Fit       0.003638
 9883 Fit       0.004959
 9884 Fit       0.005132
 9885 Fit       0.001160
 9886 Fit       0.004980
 9887 Fit       0.005917
 9888 Fit       0.005827
 9889 Fit       0.003015
 9890 Fit       0.006199
 9891 Fit       0.006781
 9892 Fit       0.006437
 9893 Fit       0.004727
 9894 Fit       0.007263
 9895 Fit       0.007514
 9896 Fit       0.006983
 9897 Fit       0.006312
 9898 Fit       0.008145
 9899 Fit       0.008091
 9900 Fit       0.007332
 9901 Fit       0.006753
 9902 Fit       0.007625
 9903 Fit       0.008832
 9904 Fit       0.008523
 9905 Fit       0.007634
 9906 Fit       0.008438
 9907 Fit       0.008706
 9908 Fit       0.009332
 9909 Fit       0.008813
 9910 Fit       0.007855
 9911 Fit       0.010256
 9912 Fit       0.009719
 9913 Fit       0.009526
 9914 Fit       0.009677
 9915 Fit       0.008977
 9916 Fit       0.010704
 9917 Fit       0.010147
 -----------------------------------------------------------------
 Leave Link  602 at Wed Jun  8 11:17:31 2016, MaxMem=    6291456 cpu:       7.9

 Test job not archived.
 1\1\GINC-COMPUTE-2-8\FOpt\RHF\6-31G(d)\C17H13Cl1N4\DAVE\08-Jun-2016\0\
 \#HF/6-31G* SCF=tight Test Pop=MK iop(6/33=2) iop(6/42=6) opt\\remark 
 line goes here\\0,1\C,1.3293799872,9.6484736887,-9.6144144149\C,2.5511
 366905,10.3129693236,-9.5185970172\C,3.1547694288,10.5094665452,-8.295
 9832916\Cl,4.6766868542,11.3472653765,-8.2112328398\C,2.5593341842,10.
 0507434016,-7.1347094001\C,1.3430867004,9.4052090936,-7.2129304488\C,0
 .7258864754,9.1930969625,-8.4398299135\N,-0.5346759371,8.5601149798,-8
 .4876163417\C,-1.0432746161,7.485671313,-7.7968317981\C,-0.2824830664,
 6.6001132086,-6.8640831928\N,-2.2749004039,7.3225700787,-8.1067697637\
 N,-2.6267799654,8.2816863782,-9.014700113\C,-1.5949293689,8.9987797965
 ,-9.2334048515\C,-1.4279600904,10.1160454852,-10.207636331\N,-0.497736
 8254,9.7165114214,-11.2486163081\C,0.7089392971,9.4892365881,-10.97841
 54\C,1.6020852955,9.0635514569,-12.1040981438\C,2.6512293482,8.1728199
 811,-11.9047455959\C,3.4320412518,7.7538063583,-12.9703374316\C,3.1798
 716746,8.231577566,-14.244319373\C,2.1370722303,9.1225828603,-14.45189
 58732\C,1.3497330155,9.5307010517,-13.3915861916\H,0.5333915052,10.208
 639794,-13.5497461732\H,1.936989765,9.4969187433,-15.4397140812\H,3.78
 9532978,7.912574836,-15.070633906\H,4.2327809089,7.0562879434,-12.8026
 036488\H,2.8563147368,7.7905600237,-10.9216547477\H,-2.3866115078,10.3
 209921884,-10.6573505179\H,-1.0882212106,11.0147717033,-9.6969559071\H
 ,0.7037157006,6.3696273409,-7.2503549074\H,-0.1669529357,7.0468605231,
 -5.8827044727\H,-0.8411536125,5.6820973286,-6.7512248339\H,0.857370794
 5,9.0855151237,-6.3123513902\H,3.0283361987,10.2130129081,-6.183288706
 8\H,3.0289945188,10.6721486279,-10.4086626725\\Version=AM64L-G03RevD.0
 2\State=1-A\HF=-1328.5867999\RMSD=6.320e-09\RMSF=1.962e-05\Thermal=0.\
 Dipole=2.0715141,0.4665998,0.4822366\PG=C01 [X(C17H13Cl1N4)]\\@


 A HARD FALL SHOULD MEAN A HIGH BOUNCE 
 IF ONE IS MADE OF THE RIGHT MATERIAL.

                -- THE CHEMIST ANALYST, MARCH 1950
 Job cpu time:  0 days  1 hours 55 minutes 15.8 seconds.
 File lengths (MBytes):  RWF=     93 Int=      0 D2E=      0 Chk=     15 Scr=      1
 Normal termination of Gaussian 03 at Wed Jun  8 11:17:32 2016.
