 Entering Gaussian System, Link 0=g03
 Initial command:
 /share/apps//g03/l1.exe /state/partition1/mmpbsa.dj5853/Gau-5863.inp -scrdir=/state/partition1/mmpbsa.dj5853/
 Entering Link 1 = /share/apps//g03/l1.exe PID=      5865.
  
 Copyright (c) 1988,1990,1992,1993,1995,1998,2003,2004, Gaussian, Inc.
                  All Rights Reserved.
  
 This is the Gaussian(R) 03 program.  It is based on the
 the Gaussian(R) 98 system (copyright 1998, Gaussian, Inc.),
 the Gaussian(R) 94 system (copyright 1995, Gaussian, Inc.),
 the Gaussian 92(TM) system (copyright 1992, Gaussian, Inc.),
 the Gaussian 90(TM) system (copyright 1990, Gaussian, Inc.),
 the Gaussian 88(TM) system (copyright 1988, Gaussian, Inc.),
 the Gaussian 86(TM) system (copyright 1986, Carnegie Mellon
 University), and the Gaussian 82(TM) system (copyright 1983,
 Carnegie Mellon University). Gaussian is a federally registered
 trademark of Gaussian, Inc.
  
 This software contains proprietary and confidential information,
 including trade secrets, belonging to Gaussian, Inc.
  
 This software is provided under written license and may be
 used, copied, transmitted, or stored only in accord with that
 written license.
  
 The following legend is applicable only to US Government
 contracts under FAR:
  
                    RESTRICTED RIGHTS LEGEND
  
 Use, reproduction and disclosure by the US Government is
 subject to restrictions as set forth in subparagraphs (a)
 and (c) of the Commercial Computer Software - Restricted
 Rights clause in FAR 52.227-19.
  
 Gaussian, Inc.
 340 Quinnipiac St., Bldg. 40, Wallingford CT 06492
  
  
 ---------------------------------------------------------------
 Warning -- This program may not be used in any manner that
 competes with the business of Gaussian, Inc. or will provide
 assistance to any competitor of Gaussian, Inc.  The licensee
 of this program is prohibited from giving any competitor of
 Gaussian, Inc. access to this program.  By using this program,
 the user acknowledges that Gaussian, Inc. is engaged in the
 business of creating and licensing software in the field of
 computational chemistry and represents and warrants to the
 licensee that it is not a competitor of Gaussian, Inc. and that
 it will not use this program in any manner prohibited above.
 ---------------------------------------------------------------
  

 Cite this work as:
 Gaussian 03, Revision D.02,
 M. J. Frisch, G. W. Trucks, H. B. Schlegel, G. E. Scuseria, 
 M. A. Robb, J. R. Cheeseman, J. A. Montgomery, Jr., T. Vreven, 
 K. N. Kudin, J. C. Burant, J. M. Millam, S. S. Iyengar, J. Tomasi, 
 V. Barone, B. Mennucci, M. Cossi, G. Scalmani, N. Rega, 
 G. A. Petersson, H. Nakatsuji, M. Hada, M. Ehara, K. Toyota, 
 R. Fukuda, J. Hasegawa, M. Ishida, T. Nakajima, Y. Honda, O. Kitao, 
 H. Nakai, M. Klene, X. Li, J. E. Knox, H. P. Hratchian, J. B. Cross, 
 V. Bakken, C. Adamo, J. Jaramillo, R. Gomperts, R. E. Stratmann, 
 O. Yazyev, A. J. Austin, R. Cammi, C. Pomelli, J. W. Ochterski, 
 P. Y. Ayala, K. Morokuma, G. A. Voth, P. Salvador, J. J. Dannenberg, 
 V. G. Zakrzewski, S. Dapprich, A. D. Daniels, M. C. Strain, 
 O. Farkas, D. K. Malick, A. D. Rabuck, K. Raghavachari, 
 J. B. Foresman, J. V. Ortiz, Q. Cui, A. G. Baboul, S. Clifford, 
 J. Cioslowski, B. B. Stefanov, G. Liu, A. Liashenko, P. Piskorz, 
 I. Komaromi, R. L. Martin, D. J. Fox, T. Keith, M. A. Al-Laham, 
 C. Y. Peng, A. Nanayakkara, M. Challacombe, P. M. W. Gill, 
 B. Johnson, W. Chen, M. W. Wong, C. Gonzalez, and J. A. Pople, 
 Gaussian, Inc., Wallingford CT, 2004.
 
 ******************************************
 Gaussian 03:  AM64L-G03RevD.02  1-Mar-2006
                23-Sep-2015 
 ******************************************
 %chk=molecule
 ------------------------------------------------------------
 #HF/6-31G* SCF=tight Test Pop=MK iop(6/33=2) iop(6/42=6) opt
 ------------------------------------------------------------
 1/18=20,38=1/1,3;
 2/9=110,17=6,18=5,40=1/2;
 3/5=1,6=6,7=1,11=9,16=1,25=1,30=1/1,2,3;
 4//1;
 5/5=2,32=2,38=5/2;
 6/7=2,8=2,9=2,10=2,15=8,20=1,28=1,33=2,42=6/1,2;
 7//1,2,3,16;
 1/18=20/3(3);
 2/9=110/2;
 6/7=2,8=2,9=2,10=2,15=8,19=2,20=1,28=1,33=2,42=6/1,2;
 99//99;
 2/9=110/2;
 3/5=1,6=6,7=1,11=9,16=1,25=1,30=1/1,2,3;
 4/5=5,16=3/1;
 5/5=2,32=2,38=5/2;
 7//1,2,3,16;
 1/18=20/3(-5);
 2/9=110/2;
 6/7=2,8=2,9=2,10=2,15=8,19=2,20=1,28=1,33=2,42=6/1,2;
 99/9=1/99;
 ---------------------
 remark line goes here
 ---------------------
 Symbolic Z-matrix:
 Charge =  0 Multiplicity = 1
 C                     9.521     4.757     11.3 
 C                     10.953    4.205     11.427 
 C                     12.008    5.057     10.693 
 O                     11.745    6.251     10.501 
 N                     13.167    4.487     10.246 
 C                     13.963    5.209     9.218 
 C                     14.918    6.229     9.87 
 C                     14.734    4.27      8.251 
 C                     14.076    2.891     8.118 
 N                     14.759    2.084     7.109 
 C                     14.174    0.96      6.506 
 C                     14.943    0.231     5.575 
 C                     14.414   -0.912     4.945 
 C                     13.105   -1.339     5.241 
 C                     12.329   -0.618     6.168 
 C                     12.858    0.526     6.797 
 C                     14.       2.298     9.522 
 C                     14.402    0.975     9.816 
 C                     14.373    0.471     11.135 
 C                     13.958    1.337     12.17 
 C                     13.567    2.66      11.894 
 C                     13.555    3.143     10.565 
 C                     14.778   -0.921     11.42 
 C                     15.512   -1.244     12.582 
 C                     15.9     -2.571     12.855 
 C                     15.559   -3.615     11.962 
 O                     15.895   -4.938     12.148 
 C                     16.632   -5.283     13.314 
 C                     14.827   -3.296     10.802 
 C                     14.443   -1.969     10.534 
 H                     13.269    5.761     8.581 
 H                     13.053    3.057     7.776 
 H                     8.806     4.092     11.784 
 H                     9.428     5.738     11.769 
 H                     9.226     4.855     10.254 
 H                     10.959    3.189     11.033 
 H                     11.217    4.146     12.482 
 H                     15.483    6.775     9.114 
 H                     14.376    6.965     10.464 
 H                     15.634    5.736     10.529 
 H                     14.824    4.751     7.276 
 H                     15.754    4.132     8.615 
 H                     15.718    2.329     6.879 
 H                     15.951    0.54      5.335 
 H                     15.014   -1.463     4.234 
 H                     12.698   -2.217     4.758 
 H                     11.325   -0.944     6.4 
 H                     12.236    1.047     7.509 
 H                     14.758    0.333     9.025 
 H                     13.936    0.989     13.193 
 H                     13.285    3.299     12.718 
 H                     15.795   -0.466     13.277 
 H                     16.462   -2.757     13.758 
 H                     17.601   -4.782     13.338 
 H                     16.079   -5.042     14.223 
 H                     16.819   -6.357     13.32 
 H                     14.555   -4.079     10.107 
 H                     13.875   -1.761     9.638 
 

 GradGradGradGradGradGradGradGradGradGradGradGradGradGradGradGradGradGrad
 Berny optimization.
 Initialization pass.
                           ----------------------------
                           !    Initial Parameters    !
                           ! (Angstroms and Degrees)  !
 --------------------------                            --------------------------
 ! Name  Definition              Value          Derivative Info.                !
 --------------------------------------------------------------------------------
 ! R1    R(1,2)                  1.54           estimate D2E/DX2                !
 ! R2    R(1,33)                 1.0898         estimate D2E/DX2                !
 ! R3    R(1,34)                 1.0913         estimate D2E/DX2                !
 ! R4    R(1,35)                 1.0912         estimate D2E/DX2                !
 ! R5    R(2,3)                  1.542          estimate D2E/DX2                !
 ! R6    R(2,36)                 1.0897         estimate D2E/DX2                !
 ! R7    R(2,37)                 1.0891         estimate D2E/DX2                !
 ! R8    R(3,4)                  1.2376         estimate D2E/DX2                !
 ! R9    R(3,5)                  1.3667         estimate D2E/DX2                !
 ! R10   R(5,6)                  1.4872         estimate D2E/DX2                !
 ! R11   R(5,22)                 1.4348         estimate D2E/DX2                !
 ! R12   R(6,7)                  1.5419         estimate D2E/DX2                !
 ! R13   R(6,8)                  1.5528         estimate D2E/DX2                !
 ! R14   R(6,31)                 1.0918         estimate D2E/DX2                !
 ! R15   R(7,38)                 1.0904         estimate D2E/DX2                !
 ! R16   R(7,39)                 1.0901         estimate D2E/DX2                !
 ! R17   R(7,40)                 1.0909         estimate D2E/DX2                !
 ! R18   R(8,9)                  1.5337         estimate D2E/DX2                !
 ! R19   R(8,41)                 1.0909         estimate D2E/DX2                !
 ! R20   R(8,42)                 1.0918         estimate D2E/DX2                !
 ! R21   R(9,10)                 1.4614         estimate D2E/DX2                !
 ! R22   R(9,17)                 1.526          estimate D2E/DX2                !
 ! R23   R(9,32)                 1.0914         estimate D2E/DX2                !
 ! R24   R(10,11)                1.4033         estimate D2E/DX2                !
 ! R25   R(10,43)                1.0162         estimate D2E/DX2                !
 ! R26   R(11,12)                1.4105         estimate D2E/DX2                !
 ! R27   R(11,16)                1.4159         estimate D2E/DX2                !
 ! R28   R(12,13)                1.4083         estimate D2E/DX2                !
 ! R29   R(12,44)                1.0813         estimate D2E/DX2                !
 ! R30   R(13,14)                1.4083         estimate D2E/DX2                !
 ! R31   R(13,45)                1.0813         estimate D2E/DX2                !
 ! R32   R(14,15)                1.4076         estimate D2E/DX2                !
 ! R33   R(14,46)                1.0816         estimate D2E/DX2                !
 ! R34   R(15,16)                1.4086         estimate D2E/DX2                !
 ! R35   R(15,47)                1.0808         estimate D2E/DX2                !
 ! R36   R(16,48)                1.0795         estimate D2E/DX2                !
 ! R37   R(17,18)                1.4136         estimate D2E/DX2                !
 ! R38   R(17,22)                1.4142         estimate D2E/DX2                !
 ! R39   R(18,19)                1.4123         estimate D2E/DX2                !
 ! R40   R(18,49)                1.0792         estimate D2E/DX2                !
 ! R41   R(19,20)                1.4119         estimate D2E/DX2                !
 ! R42   R(19,23)                1.4775         estimate D2E/DX2                !
 ! R43   R(20,21)                1.4069         estimate D2E/DX2                !
 ! R44   R(20,50)                1.0808         estimate D2E/DX2                !
 ! R45   R(21,22)                1.4141         estimate D2E/DX2                !
 ! R46   R(21,51)                1.0802         estimate D2E/DX2                !
 ! R47   R(23,24)                1.4119         estimate D2E/DX2                !
 ! R48   R(23,30)                1.4126         estimate D2E/DX2                !
 ! R49   R(24,25)                1.4093         estimate D2E/DX2                !
 ! R50   R(24,52)                1.0809         estimate D2E/DX2                !
 ! R51   R(25,26)                1.4155         estimate D2E/DX2                !
 ! R52   R(25,53)                1.0797         estimate D2E/DX2                !
 ! R53   R(26,27)                1.3776         estimate D2E/DX2                !
 ! R54   R(26,29)                1.4083         estimate D2E/DX2                !
 ! R55   R(27,28)                1.4219         estimate D2E/DX2                !
 ! R56   R(28,54)                1.0911         estimate D2E/DX2                !
 ! R57   R(28,55)                1.0909         estimate D2E/DX2                !
 ! R58   R(28,56)                1.0902         estimate D2E/DX2                !
 ! R59   R(29,30)                1.4072         estimate D2E/DX2                !
 ! R60   R(29,57)                1.0817         estimate D2E/DX2                !
 ! R61   R(30,58)                1.0811         estimate D2E/DX2                !
 ! A1    A(2,1,33)             110.7769         estimate D2E/DX2                !
 ! A2    A(2,1,34)             111.4704         estimate D2E/DX2                !
 ! A3    A(2,1,35)             111.2621         estimate D2E/DX2                !
 ! A4    A(33,1,34)            107.5623         estimate D2E/DX2                !
 ! A5    A(33,1,35)            107.6467         estimate D2E/DX2                !
 ! A6    A(34,1,35)            107.9497         estimate D2E/DX2                !
 ! A7    A(1,2,3)              113.51           estimate D2E/DX2                !
 ! A8    A(1,2,36)             108.0291         estimate D2E/DX2                !
 ! A9    A(1,2,37)             108.9478         estimate D2E/DX2                !
 ! A10   A(3,2,36)             109.8329         estimate D2E/DX2                !
 ! A11   A(3,2,37)             108.9768         estimate D2E/DX2                !
 ! A12   A(36,2,37)            107.3606         estimate D2E/DX2                !
 ! A13   A(2,3,4)              117.4854         estimate D2E/DX2                !
 ! A14   A(2,3,5)              120.3604         estimate D2E/DX2                !
 ! A15   A(4,3,5)              122.1287         estimate D2E/DX2                !
 ! A16   A(3,5,6)              118.5216         estimate D2E/DX2                !
 ! A17   A(3,5,22)             123.1793         estimate D2E/DX2                !
 ! A18   A(6,5,22)             117.6265         estimate D2E/DX2                !
 ! A19   A(5,6,7)              111.1228         estimate D2E/DX2                !
 ! A20   A(5,6,8)              113.7437         estimate D2E/DX2                !
 ! A21   A(5,6,31)             107.9699         estimate D2E/DX2                !
 ! A22   A(7,6,8)              110.8439         estimate D2E/DX2                !
 ! A23   A(7,6,31)             107.8145         estimate D2E/DX2                !
 ! A24   A(8,6,31)             104.9515         estimate D2E/DX2                !
 ! A25   A(6,7,38)             111.0394         estimate D2E/DX2                !
 ! A26   A(6,7,39)             111.6602         estimate D2E/DX2                !
 ! A27   A(6,7,40)             111.285          estimate D2E/DX2                !
 ! A28   A(38,7,39)            107.2991         estimate D2E/DX2                !
 ! A29   A(38,7,40)            107.7615         estimate D2E/DX2                !
 ! A30   A(39,7,40)            107.5956         estimate D2E/DX2                !
 ! A31   A(6,8,9)              112.6245         estimate D2E/DX2                !
 ! A32   A(6,8,41)             109.324          estimate D2E/DX2                !
 ! A33   A(6,8,42)             109.4322         estimate D2E/DX2                !
 ! A34   A(9,8,41)             110.7523         estimate D2E/DX2                !
 ! A35   A(9,8,42)             108.4263         estimate D2E/DX2                !
 ! A36   A(41,8,42)            106.0596         estimate D2E/DX2                !
 ! A37   A(8,9,10)             110.846          estimate D2E/DX2                !
 ! A38   A(8,9,17)             106.9167         estimate D2E/DX2                !
 ! A39   A(8,9,32)             107.0117         estimate D2E/DX2                !
 ! A40   A(10,9,17)            116.3539         estimate D2E/DX2                !
 ! A41   A(10,9,32)            107.8009         estimate D2E/DX2                !
 ! A42   A(17,9,32)            107.5024         estimate D2E/DX2                !
 ! A43   A(9,10,11)            122.9661         estimate D2E/DX2                !
 ! A44   A(9,10,43)            117.6575         estimate D2E/DX2                !
 ! A45   A(11,10,43)           119.2933         estimate D2E/DX2                !
 ! A46   A(10,11,12)           118.0548         estimate D2E/DX2                !
 ! A47   A(10,11,16)           123.0007         estimate D2E/DX2                !
 ! A48   A(12,11,16)           118.9433         estimate D2E/DX2                !
 ! A49   A(11,12,13)           120.6613         estimate D2E/DX2                !
 ! A50   A(11,12,44)           120.4677         estimate D2E/DX2                !
 ! A51   A(13,12,44)           118.8708         estimate D2E/DX2                !
 ! A52   A(12,13,14)           120.0797         estimate D2E/DX2                !
 ! A53   A(12,13,45)           119.9556         estimate D2E/DX2                !
 ! A54   A(14,13,45)           119.9647         estimate D2E/DX2                !
 ! A55   A(13,14,15)           119.704          estimate D2E/DX2                !
 ! A56   A(13,14,46)           120.1339         estimate D2E/DX2                !
 ! A57   A(15,14,46)           120.1621         estimate D2E/DX2                !
 ! A58   A(14,15,16)           120.2008         estimate D2E/DX2                !
 ! A59   A(14,15,47)           119.9329         estimate D2E/DX2                !
 ! A60   A(16,15,47)           119.8661         estimate D2E/DX2                !
 ! A61   A(11,16,15)           120.4107         estimate D2E/DX2                !
 ! A62   A(11,16,48)           121.5441         estimate D2E/DX2                !
 ! A63   A(15,16,48)           118.0413         estimate D2E/DX2                !
 ! A64   A(9,17,18)            122.7429         estimate D2E/DX2                !
 ! A65   A(9,17,22)            117.5193         estimate D2E/DX2                !
 ! A66   A(18,17,22)           119.6899         estimate D2E/DX2                !
 ! A67   A(17,18,19)           121.4918         estimate D2E/DX2                !
 ! A68   A(17,18,49)           119.8767         estimate D2E/DX2                !
 ! A69   A(19,18,49)           118.6218         estimate D2E/DX2                !
 ! A70   A(18,19,20)           118.1499         estimate D2E/DX2                !
 ! A71   A(18,19,23)           120.7133         estimate D2E/DX2                !
 ! A72   A(20,19,23)           121.1346         estimate D2E/DX2                !
 ! A73   A(19,20,21)           120.9751         estimate D2E/DX2                !
 ! A74   A(19,20,50)           120.1558         estimate D2E/DX2                !
 ! A75   A(21,20,50)           118.8691         estimate D2E/DX2                !
 ! A76   A(20,21,22)           120.5252         estimate D2E/DX2                !
 ! A77   A(20,21,51)           118.6323         estimate D2E/DX2                !
 ! A78   A(22,21,51)           120.8406         estimate D2E/DX2                !
 ! A79   A(5,22,17)            118.7393         estimate D2E/DX2                !
 ! A80   A(5,22,21)            122.086          estimate D2E/DX2                !
 ! A81   A(17,22,21)           119.1034         estimate D2E/DX2                !
 ! A82   A(19,23,24)           121.1187         estimate D2E/DX2                !
 ! A83   A(19,23,30)           120.8619         estimate D2E/DX2                !
 ! A84   A(24,23,30)           118.0192         estimate D2E/DX2                !
 ! A85   A(23,24,25)           121.198          estimate D2E/DX2                !
 ! A86   A(23,24,52)           120.0418         estimate D2E/DX2                !
 ! A87   A(25,24,52)           118.7576         estimate D2E/DX2                !
 ! A88   A(24,25,26)           120.3949         estimate D2E/DX2                !
 ! A89   A(24,25,53)           117.8735         estimate D2E/DX2                !
 ! A90   A(26,25,53)           121.7314         estimate D2E/DX2                !
 ! A91   A(25,26,27)           124.3586         estimate D2E/DX2                !
 ! A92   A(25,26,29)           118.5421         estimate D2E/DX2                !
 ! A93   A(27,26,29)           117.0992         estimate D2E/DX2                !
 ! A94   A(26,27,28)           118.0444         estimate D2E/DX2                !
 ! A95   A(27,28,54)           111.5273         estimate D2E/DX2                !
 ! A96   A(27,28,55)           111.5266         estimate D2E/DX2                !
 ! A97   A(27,28,56)           109.4181         estimate D2E/DX2                !
 ! A98   A(54,28,55)           109.2934         estimate D2E/DX2                !
 ! A99   A(54,28,56)           107.4513         estimate D2E/DX2                !
 ! A100  A(55,28,56)           107.4573         estimate D2E/DX2                !
 ! A101  A(26,29,30)           120.8191         estimate D2E/DX2                !
 ! A102  A(26,29,57)           119.7339         estimate D2E/DX2                !
 ! A103  A(30,29,57)           119.447          estimate D2E/DX2                !
 ! A104  A(23,30,29)           121.0265         estimate D2E/DX2                !
 ! A105  A(23,30,58)           120.1118         estimate D2E/DX2                !
 ! A106  A(29,30,58)           118.8592         estimate D2E/DX2                !
 ! D1    D(33,1,2,3)           176.6919         estimate D2E/DX2                !
 ! D2    D(33,1,2,36)           54.64           estimate D2E/DX2                !
 ! D3    D(33,1,2,37)          -61.688          estimate D2E/DX2                !
 ! D4    D(34,1,2,3)           -63.5711         estimate D2E/DX2                !
 ! D5    D(34,1,2,36)          174.377          estimate D2E/DX2                !
 ! D6    D(34,1,2,37)           58.049          estimate D2E/DX2                !
 ! D7    D(35,1,2,3)            56.9861         estimate D2E/DX2                !
 ! D8    D(35,1,2,36)          -65.0658         estimate D2E/DX2                !
 ! D9    D(35,1,2,37)          178.6062         estimate D2E/DX2                !
 ! D10   D(1,2,3,4)             24.4847         estimate D2E/DX2                !
 ! D11   D(1,2,3,5)           -153.7192         estimate D2E/DX2                !
 ! D12   D(36,2,3,4)           145.5288         estimate D2E/DX2                !
 ! D13   D(36,2,3,5)           -32.675          estimate D2E/DX2                !
 ! D14   D(37,2,3,4)           -97.1192         estimate D2E/DX2                !
 ! D15   D(37,2,3,5)            84.6769         estimate D2E/DX2                !
 ! D16   D(2,3,5,6)            162.2756         estimate D2E/DX2                !
 ! D17   D(2,3,5,22)            -8.0921         estimate D2E/DX2                !
 ! D18   D(4,3,5,6)            -15.8428         estimate D2E/DX2                !
 ! D19   D(4,3,5,22)           173.7895         estimate D2E/DX2                !
 ! D20   D(3,5,6,7)             85.7292         estimate D2E/DX2                !
 ! D21   D(3,5,6,8)           -148.3502         estimate D2E/DX2                !
 ! D22   D(3,5,6,31)           -32.3111         estimate D2E/DX2                !
 ! D23   D(22,5,6,7)          -103.3654         estimate D2E/DX2                !
 ! D24   D(22,5,6,8)            22.5552         estimate D2E/DX2                !
 ! D25   D(22,5,6,31)          138.5942         estimate D2E/DX2                !
 ! D26   D(3,5,22,17)          132.3226         estimate D2E/DX2                !
 ! D27   D(3,5,22,21)          -50.7742         estimate D2E/DX2                !
 ! D28   D(6,5,22,17)          -38.1258         estimate D2E/DX2                !
 ! D29   D(6,5,22,21)          138.7774         estimate D2E/DX2                !
 ! D30   D(5,6,7,38)          -178.5908         estimate D2E/DX2                !
 ! D31   D(5,6,7,39)           -58.8836         estimate D2E/DX2                !
 ! D32   D(5,6,7,40)            61.3679         estimate D2E/DX2                !
 ! D33   D(8,6,7,38)            53.8944         estimate D2E/DX2                !
 ! D34   D(8,6,7,39)           173.6016         estimate D2E/DX2                !
 ! D35   D(8,6,7,40)           -66.147          estimate D2E/DX2                !
 ! D36   D(31,6,7,38)          -60.4564         estimate D2E/DX2                !
 ! D37   D(31,6,7,39)           59.2508         estimate D2E/DX2                !
 ! D38   D(31,6,7,40)          179.5022         estimate D2E/DX2                !
 ! D39   D(5,6,8,9)             25.7378         estimate D2E/DX2                !
 ! D40   D(5,6,8,41)           149.306          estimate D2E/DX2                !
 ! D41   D(5,6,8,42)           -94.9361         estimate D2E/DX2                !
 ! D42   D(7,6,8,9)            151.8056         estimate D2E/DX2                !
 ! D43   D(7,6,8,41)           -84.6262         estimate D2E/DX2                !
 ! D44   D(7,6,8,42)            31.1317         estimate D2E/DX2                !
 ! D45   D(31,6,8,9)           -92.0581         estimate D2E/DX2                !
 ! D46   D(31,6,8,41)           31.51           estimate D2E/DX2                !
 ! D47   D(31,6,8,42)          147.268          estimate D2E/DX2                !
 ! D48   D(6,8,9,10)           174.7546         estimate D2E/DX2                !
 ! D49   D(6,8,9,17)           -57.4892         estimate D2E/DX2                !
 ! D50   D(6,8,9,32)            57.4581         estimate D2E/DX2                !
 ! D51   D(41,8,9,10)           51.9834         estimate D2E/DX2                !
 ! D52   D(41,8,9,17)          179.7397         estimate D2E/DX2                !
 ! D53   D(41,8,9,32)          -65.3131         estimate D2E/DX2                !
 ! D54   D(42,8,9,10)          -63.9966         estimate D2E/DX2                !
 ! D55   D(42,8,9,17)           63.7597         estimate D2E/DX2                !
 ! D56   D(42,8,9,32)          178.707          estimate D2E/DX2                !
 ! D57   D(8,9,10,11)         -161.2933         estimate D2E/DX2                !
 ! D58   D(8,9,10,43)           22.0486         estimate D2E/DX2                !
 ! D59   D(17,9,10,11)          76.287          estimate D2E/DX2                !
 ! D60   D(17,9,10,43)        -100.3711         estimate D2E/DX2                !
 ! D61   D(32,9,10,11)         -44.4813         estimate D2E/DX2                !
 ! D62   D(32,9,10,43)         138.8606         estimate D2E/DX2                !
 ! D63   D(8,9,17,18)         -132.5385         estimate D2E/DX2                !
 ! D64   D(8,9,17,22)           44.935          estimate D2E/DX2                !
 ! D65   D(10,9,17,18)          -8.083          estimate D2E/DX2                !
 ! D66   D(10,9,17,22)         169.3905         estimate D2E/DX2                !
 ! D67   D(32,9,17,18)         112.8444         estimate D2E/DX2                !
 ! D68   D(32,9,17,22)         -69.6821         estimate D2E/DX2                !
 ! D69   D(9,10,11,12)        -178.014          estimate D2E/DX2                !
 ! D70   D(9,10,11,16)           1.582          estimate D2E/DX2                !
 ! D71   D(43,10,11,12)         -1.4082         estimate D2E/DX2                !
 ! D72   D(43,10,11,16)        178.1878         estimate D2E/DX2                !
 ! D73   D(10,11,12,13)        179.5047         estimate D2E/DX2                !
 ! D74   D(10,11,12,44)         -0.3401         estimate D2E/DX2                !
 ! D75   D(16,11,12,13)         -0.1081         estimate D2E/DX2                !
 ! D76   D(16,11,12,44)       -179.9529         estimate D2E/DX2                !
 ! D77   D(10,11,16,15)       -179.4229         estimate D2E/DX2                !
 ! D78   D(10,11,16,48)         -0.1515         estimate D2E/DX2                !
 ! D79   D(12,11,16,15)          0.1697         estimate D2E/DX2                !
 ! D80   D(12,11,16,48)        179.4411         estimate D2E/DX2                !
 ! D81   D(11,12,13,14)          0.0076         estimate D2E/DX2                !
 ! D82   D(11,12,13,45)       -179.9251         estimate D2E/DX2                !
 ! D83   D(44,12,13,14)        179.8549         estimate D2E/DX2                !
 ! D84   D(44,12,13,45)         -0.0779         estimate D2E/DX2                !
 ! D85   D(12,13,14,15)          0.0329         estimate D2E/DX2                !
 ! D86   D(12,13,14,46)       -179.9715         estimate D2E/DX2                !
 ! D87   D(45,13,14,15)        179.9657         estimate D2E/DX2                !
 ! D88   D(45,13,14,46)         -0.0388         estimate D2E/DX2                !
 ! D89   D(13,14,15,16)          0.0288         estimate D2E/DX2                !
 ! D90   D(13,14,15,47)       -179.8276         estimate D2E/DX2                !
 ! D91   D(46,14,15,16)       -179.9668         estimate D2E/DX2                !
 ! D92   D(46,14,15,47)          0.1769         estimate D2E/DX2                !
 ! D93   D(14,15,16,11)         -0.1314         estimate D2E/DX2                !
 ! D94   D(14,15,16,48)       -179.4278         estimate D2E/DX2                !
 ! D95   D(47,15,16,11)        179.7251         estimate D2E/DX2                !
 ! D96   D(47,15,16,48)          0.4286         estimate D2E/DX2                !
 ! D97   D(9,17,18,19)         177.3108         estimate D2E/DX2                !
 ! D98   D(9,17,18,49)          -1.5387         estimate D2E/DX2                !
 ! D99   D(22,17,18,19)         -0.1099         estimate D2E/DX2                !
 ! D100  D(22,17,18,49)       -178.9594         estimate D2E/DX2                !
 ! D101  D(9,17,22,5)            1.7086         estimate D2E/DX2                !
 ! D102  D(9,17,22,21)        -175.2886         estimate D2E/DX2                !
 ! D103  D(18,17,22,5)         179.2625         estimate D2E/DX2                !
 ! D104  D(18,17,22,21)          2.2653         estimate D2E/DX2                !
 ! D105  D(17,18,19,20)         -1.4406         estimate D2E/DX2                !
 ! D106  D(17,18,19,23)        179.0845         estimate D2E/DX2                !
 ! D107  D(49,18,19,20)        177.423          estimate D2E/DX2                !
 ! D108  D(49,18,19,23)         -2.052          estimate D2E/DX2                !
 ! D109  D(18,19,20,21)          0.8311         estimate D2E/DX2                !
 ! D110  D(18,19,20,50)       -179.1975         estimate D2E/DX2                !
 ! D111  D(23,19,20,21)       -179.6963         estimate D2E/DX2                !
 ! D112  D(23,19,20,50)          0.2751         estimate D2E/DX2                !
 ! D113  D(18,19,23,24)        141.4564         estimate D2E/DX2                !
 ! D114  D(18,19,23,30)        -38.4284         estimate D2E/DX2                !
 ! D115  D(20,19,23,24)        -38.0027         estimate D2E/DX2                !
 ! D116  D(20,19,23,30)        142.1125         estimate D2E/DX2                !
 ! D117  D(19,20,21,22)          1.331          estimate D2E/DX2                !
 ! D118  D(19,20,21,51)       -178.1673         estimate D2E/DX2                !
 ! D119  D(50,20,21,22)       -178.6408         estimate D2E/DX2                !
 ! D120  D(50,20,21,51)          1.8609         estimate D2E/DX2                !
 ! D121  D(20,21,22,5)        -179.7723         estimate D2E/DX2                !
 ! D122  D(20,21,22,17)         -2.88           estimate D2E/DX2                !
 ! D123  D(51,21,22,5)          -0.2852         estimate D2E/DX2                !
 ! D124  D(51,21,22,17)        176.6071         estimate D2E/DX2                !
 ! D125  D(19,23,24,25)       -179.9534         estimate D2E/DX2                !
 ! D126  D(19,23,24,52)         -0.5453         estimate D2E/DX2                !
 ! D127  D(30,23,24,25)         -0.0655         estimate D2E/DX2                !
 ! D128  D(30,23,24,52)        179.3427         estimate D2E/DX2                !
 ! D129  D(19,23,30,29)        179.9976         estimate D2E/DX2                !
 ! D130  D(19,23,30,58)         -0.5907         estimate D2E/DX2                !
 ! D131  D(24,23,30,29)          0.1094         estimate D2E/DX2                !
 ! D132  D(24,23,30,58)        179.5211         estimate D2E/DX2                !
 ! D133  D(23,24,25,26)          0.0178         estimate D2E/DX2                !
 ! D134  D(23,24,25,53)        179.8563         estimate D2E/DX2                !
 ! D135  D(52,24,25,26)       -179.3978         estimate D2E/DX2                !
 ! D136  D(52,24,25,53)          0.4407         estimate D2E/DX2                !
 ! D137  D(24,25,26,27)       -179.976          estimate D2E/DX2                !
 ! D138  D(24,25,26,29)         -0.0117         estimate D2E/DX2                !
 ! D139  D(53,25,26,27)          0.1918         estimate D2E/DX2                !
 ! D140  D(53,25,26,29)       -179.8438         estimate D2E/DX2                !
 ! D141  D(25,26,27,28)          0.0808         estimate D2E/DX2                !
 ! D142  D(29,26,27,28)       -179.8841         estimate D2E/DX2                !
 ! D143  D(25,26,29,30)          0.0556         estimate D2E/DX2                !
 ! D144  D(25,26,29,57)       -179.9211         estimate D2E/DX2                !
 ! D145  D(27,26,29,30)       -179.9775         estimate D2E/DX2                !
 ! D146  D(27,26,29,57)          0.0459         estimate D2E/DX2                !
 ! D147  D(26,27,28,54)        -61.329          estimate D2E/DX2                !
 ! D148  D(26,27,28,55)         61.1784         estimate D2E/DX2                !
 ! D149  D(26,27,28,56)        179.9282         estimate D2E/DX2                !
 ! D150  D(26,29,30,23)         -0.1067         estimate D2E/DX2                !
 ! D151  D(26,29,30,58)       -179.5256         estimate D2E/DX2                !
 ! D152  D(57,29,30,23)        179.87           estimate D2E/DX2                !
 ! D153  D(57,29,30,58)          0.4511         estimate D2E/DX2                !
 --------------------------------------------------------------------------------
 Trust Radius=3.00D-01 FncErr=1.00D-07 GrdErr=1.00D-07
 Number of steps in this run= 330 maximum allowed number of steps= 348.
 GradGradGradGradGradGradGradGradGradGradGradGradGradGradGradGradGradGrad

 Stoichiometry    C26H28N2O2
 Framework group  C1[X(C26H28N2O2)]
 Deg. of freedom   168
 Full point group                 C1
 Largest Abelian subgroup         C1      NOp   1
 Largest concise Abelian subgroup C1      NOp   1
                         Standard orientation:                         
 ---------------------------------------------------------------------
 Center     Atomic     Atomic              Coordinates (Angstroms)
 Number     Number      Type              X           Y           Z
 ---------------------------------------------------------------------
    1          6             0        4.530932   -2.311907    3.067579
    2          6             0        3.534363   -2.286918    1.893832
    3          6             0        4.125399   -1.696986    0.597552
    4          8             0        5.354017   -1.744778    0.456543
    5          7             0        3.309345   -1.113823   -0.330870
    6          6             0        3.919125   -0.218603   -1.349905
    7          6             0        4.433861   -1.023656   -2.560057
    8          6             0        2.984701    0.933249   -1.809620
    9          6             0        1.942546    1.306835   -0.748187
   10          7             0        1.166853    2.471969   -1.168406
   11          6             0        0.427363    3.260220   -0.273406
   12          6             0       -0.318503    4.336581   -0.797518
   13          6             0       -1.088470    5.156679    0.049701
   14          6             0       -1.120140    4.907464    1.435456
   15          6             0       -0.378681    3.836340    1.968632
   16          6             0        0.392405    3.017032    1.121058
   17          6             0        1.149256    0.040282   -0.439682
   18          6             0       -0.263147    0.016926   -0.385432
   19          6             0       -0.972790   -1.181782   -0.152791
   20          6             0       -0.233488   -2.375429   -0.004315
   21          6             0        1.171946   -2.369394   -0.068384
   22          6             0        1.877199   -1.158128   -0.255803
   23          6             0       -2.448440   -1.183037   -0.079507
   24          6             0       -3.205558   -2.238755   -0.632282
   25          6             0       -4.613166   -2.241175   -0.564187
   26          6             0       -5.301601   -1.176159    0.064673
   27          8             0       -6.672193   -1.095591    0.177843
   28          6             0       -7.451443   -2.150939   -0.370572
   29          6             0       -4.549217   -0.121578    0.616906
   30          6             0       -3.143849   -0.123939    0.545188
   31          1             0        4.775683    0.279529   -0.891341
   32          1             0        2.490601    1.579122    0.155441
   33          1             0        4.051706   -2.681794    3.973797
   34          1             0        5.381302   -2.962284    2.855796
   35          1             0        4.916110   -1.313485    3.280973
   36          1             0        2.665199   -1.706121    2.201658
   37          1             0        3.193609   -3.302575    1.697541
   38          1             0        4.902798   -0.368804   -3.295002
   39          1             0        5.177500   -1.763722   -2.264084
   40          1             0        3.620760   -1.553963   -3.057677
   41          1             0        3.587810    1.800731   -2.081319
   42          1             0        2.459386    0.633937   -2.718684
   43          1             0        1.129648    2.680399   -2.162276
   44          1             0       -0.310192    4.544110   -1.858653
   45          1             0       -1.656856    5.977987   -0.364439
   46          1             0       -1.711564    5.536486    2.086893
   47          1             0       -0.402519    3.640030    3.031180
   48          1             0        0.939847    2.199794    1.565691
   49          1             0       -0.822241    0.926580   -0.542035
   50          1             0       -0.744250   -3.313311    0.161871
   51          1             0        1.698175   -3.308570    0.020230
   52          1             0       -2.707444   -3.060495   -1.127282
   53          1             0       -5.138534   -3.074258   -1.006691
   54          1             0       -7.302848   -2.240297   -1.447825
   55          1             0       -7.223452   -3.105847    0.105181
   56          1             0       -8.508861   -1.945925   -0.202291
   57          1             0       -5.055504    0.701456    1.103101
   58          1             0       -2.597480    0.697888    0.986532
 ---------------------------------------------------------------------
 Rotational constants (GHZ):      0.1816725      0.0922007      0.0707944
 Standard basis: 6-31G(d) (6D, 7F)
 There are   506 symmetry adapted basis functions of A   symmetry.
 Integral buffers will be    131072 words long.
 Raffenetti 1 integral format.
 Two-electron integral symmetry is turned on.
   506 basis functions,   952 primitive gaussians,   506 cartesian basis functions
   107 alpha electrons      107 beta electrons
       nuclear repulsion energy      2772.5513156215 Hartrees.
 NAtoms=   58 NActive=   58 NUniq=   58 SFac= 7.50D-01 NAtFMM=   80 NAOKFM=F Big=F
 One-electron integrals computed using PRISM.
 NBasis=   506 RedAO= T  NBF=   506
 NBsUse=   506 1.00D-06 NBFU=   506
 Harris functional with IExCor=  205 diagonalized for initial guess.
 ExpMin= 1.61D-01 ExpMax= 5.48D+03 ExpMxC= 8.25D+02 IAcc=1 IRadAn=         1 AccDes= 1.00D-06
 HarFok:  IExCor= 205 AccDes= 1.00D-06 IRadAn=         1 IDoV=1
 ScaDFX=  1.000000  1.000000  1.000000  1.000000
 Initial guess orbital symmetries:
       Occupied  (A) (A) (A) (A) (A) (A) (A) (A) (A) (A) (A) (A)
                 (A) (A) (A) (A) (A) (A) (A) (A) (A) (A) (A) (A)
                 (A) (A) (A) (A) (A) (A) (A) (A) (A) (A) (A) (A)
                 (A) (A) (A) (A) (A) (A) (A) (A) (A) (A) (A) (A)
                 (A) (A) (A) (A) (A) (A) (A) (A) (A) (A) (A) (A)
                 (A) (A) (A) (A) (A) (A) (A) (A) (A) (A) (A) (A)
                 (A) (A) (A) (A) (A) (A) (A) (A) (A) (A) (A) (A)
                 (A) (A) (A) (A) (A) (A) (A) (A) (A) (A) (A) (A)
                 (A) (A) (A) (A) (A) (A) (A) (A) (A) (A) (A)
       Virtual   (A) (A) (A) (A) (A) (A) (A) (A) (A) (A) (A) (A)
                 (A) (A) (A) (A) (A) (A) (A) (A) (A) (A) (A) (A)
                 (A) (A) (A) (A) (A) (A) (A) (A) (A) (A) (A) (A)
                 (A) (A) (A) (A) (A) (A) (A) (A) (A) (A) (A) (A)
                 (A) (A) (A) (A) (A) (A) (A) (A) (A) (A) (A) (A)
                 (A) (A) (A) (A) (A) (A) (A) (A) (A) (A) (A) (A)
                 (A) (A) (A) (A) (A) (A) (A) (A) (A) (A) (A) (A)
                 (A) (A) (A) (A) (A) (A) (A) (A) (A) (A) (A) (A)
                 (A) (A) (A) (A) (A) (A) (A) (A) (A) (A) (A) (A)
                 (A) (A) (A) (A) (A) (A) (A) (A) (A) (A) (A) (A)
                 (A) (A) (A) (A) (A) (A) (A) (A) (A) (A) (A) (A)
                 (A) (A) (A) (A) (A) (A) (A) (A) (A) (A) (A) (A)
                 (A) (A) (A) (A) (A) (A) (A) (A) (A) (A) (A) (A)
                 (A) (A) (A) (A) (A) (A) (A) (A) (A) (A) (A) (A)
                 (A) (A) (A) (A) (A) (A) (A) (A) (A) (A) (A) (A)
                 (A) (A) (A) (A) (A) (A) (A) (A) (A) (A) (A) (A)
                 (A) (A) (A) (A) (A) (A) (A) (A) (A) (A) (A) (A)
                 (A) (A) (A) (A) (A) (A) (A) (A) (A) (A) (A) (A)
                 (A) (A) (A) (A) (A) (A) (A) (A) (A) (A) (A) (A)
                 (A) (A) (A) (A) (A) (A) (A) (A) (A) (A) (A) (A)
                 (A) (A) (A) (A) (A) (A) (A) (A) (A) (A) (A) (A)
                 (A) (A) (A) (A) (A) (A) (A) (A) (A) (A) (A) (A)
                 (A) (A) (A) (A) (A) (A) (A) (A) (A) (A) (A) (A)
                 (A) (A) (A) (A) (A) (A) (A) (A) (A) (A) (A) (A)
                 (A) (A) (A) (A) (A) (A) (A) (A) (A) (A) (A) (A)
                 (A) (A) (A) (A) (A) (A) (A) (A) (A) (A) (A) (A)
                 (A) (A) (A) (A) (A) (A) (A) (A) (A) (A) (A) (A)
                 (A) (A) (A) (A) (A) (A) (A) (A) (A) (A) (A) (A)
                 (A) (A) (A) (A) (A) (A) (A) (A) (A) (A) (A) (A)
                 (A) (A) (A) (A) (A) (A) (A) (A) (A) (A) (A) (A)
                 (A) (A) (A) (A) (A) (A) (A) (A) (A) (A) (A) (A)
                 (A) (A) (A) (A) (A) (A) (A) (A) (A) (A) (A) (A)
                 (A) (A) (A) (A) (A) (A) (A) (A) (A) (A) (A) (A)
                 (A) (A) (A)
 The electronic state of the initial guess is 1-A.
 Requested convergence on RMS density matrix=1.00D-08 within 128 cycles.
 Requested convergence on MAX density matrix=1.00D-06.
 Requested convergence on             energy=1.00D-06.
 No special actions if energy rises.
 Integral accuracy reduced to 1.0D-05 until final iterations.
 Initial convergence to 1.0D-05 achieved.  Increase integral accuracy.
 SCF Done:  E(RHF) =  -1259.49906519     A.U. after   16 cycles
             Convg  =    0.4139D-08             -V/T =  2.0026
             S**2   =   0.0000

 **********************************************************************

            Population analysis using the SCF density.

 **********************************************************************

 Orbital symmetries:
 BldTbl:  Degeneracy threshold= 1.00D-02
       Occupied  (A) (A) (A) (A) (A) (A) (A) (A) (A) (A) (A) (A)
                 (A) (A) (A) (A) (A) (A) (A) (A) (A) (A) (A) (A)
                 (A) (A) (A) (A) (A) (A) (A) (A) (A) (A) (A) (A)
                 (A) (A) (A) (A) (A) (A) (A) (A) (A) (A) (A) (A)
                 (A) (A) (A) (A) (A) (A) (A) (A) (A) (A) (A) (A)
                 (A) (A) (A) (A) (A) (A) (A) (A) (A) (A) (A) (A)
                 (A) (A) (A) (A) (A) (A) (A) (A) (A) (A) (A) (A)
                 (A) (A) (A) (A) (A) (A) (A) (A) (A) (A) (A) (A)
                 (A) (A) (A) (A) (A) (A) (A) (A) (A) (A) (A)
       Virtual   (A) (A) (A) (A) (A) (A) (A) (A) (A) (A) (A) (A)
                 (A) (A) (A) (A) (A) (A) (A) (A) (A) (A) (A) (A)
                 (A) (A) (A) (A) (A) (A) (A) (A) (A) (A) (A) (A)
                 (A) (A) (A) (A) (A) (A) (A) (A) (A) (A) (A) (A)
                 (A) (A) (A) (A) (A) (A) (A) (A) (A) (A) (A) (A)
                 (A) (A) (A) (A) (A) (A) (A) (A) (A) (A) (A) (A)
                 (A) (A) (A) (A) (A) (A) (A) (A) (A) (A) (A) (A)
                 (A) (A) (A) (A) (A) (A) (A) (A) (A) (A) (A) (A)
                 (A) (A) (A) (A) (A) (A) (A) (A) (A) (A) (A) (A)
                 (A) (A) (A) (A) (A) (A) (A) (A) (A) (A) (A) (A)
                 (A) (A) (A) (A) (A) (A) (A) (A) (A) (A) (A) (A)
                 (A) (A) (A) (A) (A) (A) (A) (A) (A) (A) (A) (A)
                 (A) (A) (A) (A) (A) (A) (A) (A) (A) (A) (A) (A)
                 (A) (A) (A) (A) (A) (A) (A) (A) (A) (A) (A) (A)
                 (A) (A) (A) (A) (A) (A) (A) (A) (A) (A) (A) (A)
                 (A) (A) (A) (A) (A) (A) (A) (A) (A) (A) (A) (A)
                 (A) (A) (A) (A) (A) (A) (A) (A) (A) (A) (A) (A)
                 (A) (A) (A) (A) (A) (A) (A) (A) (A) (A) (A) (A)
                 (A) (A) (A) (A) (A) (A) (A) (A) (A) (A) (A) (A)
                 (A) (A) (A) (A) (A) (A) (A) (A) (A) (A) (A) (A)
                 (A) (A) (A) (A) (A) (A) (A) (A) (A) (A) (A) (A)
                 (A) (A) (A) (A) (A) (A) (A) (A) (A) (A) (A) (A)
                 (A) (A) (A) (A) (A) (A) (A) (A) (A) (A) (A) (A)
                 (A) (A) (A) (A) (A) (A) (A) (A) (A) (A) (A) (A)
                 (A) (A) (A) (A) (A) (A) (A) (A) (A) (A) (A) (A)
                 (A) (A) (A) (A) (A) (A) (A) (A) (A) (A) (A) (A)
                 (A) (A) (A) (A) (A) (A) (A) (A) (A) (A) (A) (A)
                 (A) (A) (A) (A) (A) (A) (A) (A) (A) (A) (A) (A)
                 (A) (A) (A) (A) (A) (A) (A) (A) (A) (A) (A) (A)
                 (A) (A) (A) (A) (A) (A) (A) (A) (A) (A) (A) (A)
                 (A) (A) (A) (A) (A) (A) (A) (A) (A) (A) (A) (A)
                 (A) (A) (A) (A) (A) (A) (A) (A) (A) (A) (A) (A)
                 (A) (A) (A) (A) (A) (A) (A) (A) (A) (A) (A) (A)
                 (A) (A) (A)
 The electronic state is 1-A.
 Alpha  occ. eigenvalues --  -20.59237 -20.51982 -15.60290 -15.57668 -11.35134
 Alpha  occ. eigenvalues --  -11.30754 -11.28847 -11.28843 -11.28739 -11.28473
 Alpha  occ. eigenvalues --  -11.27950 -11.25101 -11.25022 -11.24751 -11.24568
 Alpha  occ. eigenvalues --  -11.24317 -11.24293 -11.24186 -11.24162 -11.24063
 Alpha  occ. eigenvalues --  -11.24038 -11.24006 -11.23897 -11.23608 -11.23342
 Alpha  occ. eigenvalues --  -11.22883 -11.22837 -11.22281 -11.21396 -11.21324
 Alpha  occ. eigenvalues --   -1.40145  -1.36832  -1.26253  -1.23954  -1.15941
 Alpha  occ. eigenvalues --   -1.13286  -1.12472  -1.08137  -1.05459  -1.03742
 Alpha  occ. eigenvalues --   -1.02255  -1.01500  -1.00595  -0.99626  -0.98393
 Alpha  occ. eigenvalues --   -0.95597  -0.93704  -0.89490  -0.87977  -0.85014
 Alpha  occ. eigenvalues --   -0.84237  -0.82768  -0.82333  -0.80435  -0.79813
 Alpha  occ. eigenvalues --   -0.77853  -0.74854  -0.71649  -0.71301  -0.68652
 Alpha  occ. eigenvalues --   -0.68131  -0.67729  -0.67192  -0.66302  -0.65350
 Alpha  occ. eigenvalues --   -0.65158  -0.63376  -0.62958  -0.62566  -0.61357
 Alpha  occ. eigenvalues --   -0.61006  -0.60371  -0.59427  -0.59026  -0.58420
 Alpha  occ. eigenvalues --   -0.58345  -0.57991  -0.57494  -0.57236  -0.56163
 Alpha  occ. eigenvalues --   -0.54741  -0.53960  -0.53254  -0.52515  -0.52336
 Alpha  occ. eigenvalues --   -0.51574  -0.51248  -0.50977  -0.50535  -0.50085
 Alpha  occ. eigenvalues --   -0.49538  -0.49465  -0.48784  -0.48472  -0.47720
 Alpha  occ. eigenvalues --   -0.47559  -0.46789  -0.46079  -0.42121  -0.41191
 Alpha  occ. eigenvalues --   -0.40119  -0.33910  -0.33662  -0.33406  -0.32701
 Alpha  occ. eigenvalues --   -0.28313  -0.27732
 Alpha virt. eigenvalues --    0.10337   0.12807   0.13456   0.14038   0.16110
 Alpha virt. eigenvalues --    0.17430   0.20259   0.22596   0.23157   0.23678
 Alpha virt. eigenvalues --    0.23914   0.24202   0.25510   0.25990   0.26590
 Alpha virt. eigenvalues --    0.28237   0.28605   0.29052   0.29821   0.30218
 Alpha virt. eigenvalues --    0.30628   0.30891   0.31362   0.31658   0.31812
 Alpha virt. eigenvalues --    0.32147   0.32311   0.32407   0.32704   0.33680
 Alpha virt. eigenvalues --    0.33699   0.33972   0.34296   0.34833   0.35428
 Alpha virt. eigenvalues --    0.36134   0.36859   0.37324   0.37833   0.38501
 Alpha virt. eigenvalues --    0.39195   0.39883   0.41088   0.41936   0.42514
 Alpha virt. eigenvalues --    0.43891   0.44566   0.45231   0.45883   0.46632
 Alpha virt. eigenvalues --    0.46751   0.48540   0.48799   0.49892   0.50331
 Alpha virt. eigenvalues --    0.50946   0.52951   0.53605   0.54598   0.55125
 Alpha virt. eigenvalues --    0.55921   0.57286   0.58306   0.60494   0.62407
 Alpha virt. eigenvalues --    0.66068   0.68676   0.69521   0.70395   0.70953
 Alpha virt. eigenvalues --    0.71366   0.72260   0.72626   0.73291   0.73893
 Alpha virt. eigenvalues --    0.74171   0.74338   0.74876   0.75205   0.76275
 Alpha virt. eigenvalues --    0.76389   0.77168   0.77415   0.78406   0.78648
 Alpha virt. eigenvalues --    0.78930   0.79234   0.79652   0.80303   0.81309
 Alpha virt. eigenvalues --    0.81480   0.81801   0.81967   0.82637   0.83019
 Alpha virt. eigenvalues --    0.83579   0.83753   0.83839   0.84242   0.84652
 Alpha virt. eigenvalues --    0.85225   0.85812   0.86516   0.87131   0.87201
 Alpha virt. eigenvalues --    0.88582   0.89424   0.89989   0.90411   0.90728
 Alpha virt. eigenvalues --    0.91696   0.92200   0.92947   0.93441   0.94714
 Alpha virt. eigenvalues --    0.94993   0.95531   0.96622   0.98394   0.99433
 Alpha virt. eigenvalues --    1.00638   1.01615   1.02537   1.03560   1.04429
 Alpha virt. eigenvalues --    1.04841   1.05018   1.06202   1.06960   1.08285
 Alpha virt. eigenvalues --    1.09322   1.10286   1.10781   1.11016   1.11357
 Alpha virt. eigenvalues --    1.11732   1.11931   1.12159   1.12474   1.12484
 Alpha virt. eigenvalues --    1.12757   1.13035   1.13299   1.13638   1.14547
 Alpha virt. eigenvalues --    1.14876   1.16023   1.16275   1.16670   1.17216
 Alpha virt. eigenvalues --    1.17762   1.18039   1.18248   1.19030   1.19181
 Alpha virt. eigenvalues --    1.19641   1.19860   1.20204   1.20615   1.20814
 Alpha virt. eigenvalues --    1.21206   1.21726   1.22460   1.23177   1.23301
 Alpha virt. eigenvalues --    1.23876   1.24572   1.24996   1.25653   1.26532
 Alpha virt. eigenvalues --    1.26879   1.28063   1.29099   1.29798   1.30378
 Alpha virt. eigenvalues --    1.30723   1.32269   1.32814   1.34144   1.35171
 Alpha virt. eigenvalues --    1.36363   1.37596   1.38039   1.39491   1.40745
 Alpha virt. eigenvalues --    1.41009   1.42266   1.43064   1.43426   1.44091
 Alpha virt. eigenvalues --    1.45512   1.46684   1.48230   1.48789   1.49722
 Alpha virt. eigenvalues --    1.51061   1.51303   1.52214   1.54683   1.56193
 Alpha virt. eigenvalues --    1.57617   1.58563   1.61857   1.63391   1.63846
 Alpha virt. eigenvalues --    1.64379   1.65257   1.66484   1.67609   1.69071
 Alpha virt. eigenvalues --    1.70277   1.70739   1.71500   1.72297   1.72913
 Alpha virt. eigenvalues --    1.73420   1.73952   1.75520   1.76324   1.76962
 Alpha virt. eigenvalues --    1.77657   1.77948   1.78676   1.78874   1.79436
 Alpha virt. eigenvalues --    1.80644   1.81189   1.84113   1.85740   1.88002
 Alpha virt. eigenvalues --    1.90146   1.92423   1.95399   1.97117   1.98576
 Alpha virt. eigenvalues --    2.01366   2.01791   2.04377   2.04964   2.05475
 Alpha virt. eigenvalues --    2.06472   2.07845   2.08065   2.09476   2.10076
 Alpha virt. eigenvalues --    2.10672   2.11383   2.11707   2.12295   2.12349
 Alpha virt. eigenvalues --    2.13018   2.14013   2.15958   2.16439   2.16705
 Alpha virt. eigenvalues --    2.17466   2.17956   2.18500   2.21283   2.22372
 Alpha virt. eigenvalues --    2.23309   2.24259   2.24669   2.25544   2.26097
 Alpha virt. eigenvalues --    2.27204   2.28075   2.29125   2.30550   2.30907
 Alpha virt. eigenvalues --    2.31336   2.31770   2.32040   2.33002   2.34569
 Alpha virt. eigenvalues --    2.35502   2.36453   2.37031   2.37970   2.39387
 Alpha virt. eigenvalues --    2.40358   2.40567   2.41254   2.42128   2.42441
 Alpha virt. eigenvalues --    2.43730   2.44056   2.44675   2.45403   2.45822
 Alpha virt. eigenvalues --    2.46580   2.47843   2.48878   2.50953   2.51922
 Alpha virt. eigenvalues --    2.52935   2.53811   2.54308   2.56002   2.56177
 Alpha virt. eigenvalues --    2.56576   2.57947   2.59735   2.60640   2.61416
 Alpha virt. eigenvalues --    2.62324   2.62565   2.63447   2.64139   2.66213
 Alpha virt. eigenvalues --    2.67636   2.67839   2.68328   2.69286   2.70124
 Alpha virt. eigenvalues --    2.70757   2.73428   2.73654   2.76323   2.79180
 Alpha virt. eigenvalues --    2.80220   2.82301   2.82479   2.83704   2.85706
 Alpha virt. eigenvalues --    2.86986   2.87304   2.88514   2.90426   2.92509
 Alpha virt. eigenvalues --    2.94078   2.94602   2.95439   2.96044   2.97468
 Alpha virt. eigenvalues --    2.98365   2.98489   3.00297   3.01178   3.02786
 Alpha virt. eigenvalues --    3.04185   3.05015   3.07660   3.08354   3.08796
 Alpha virt. eigenvalues --    3.09332   3.10194   3.12079   3.12446   3.14251
 Alpha virt. eigenvalues --    3.15059   3.16328   3.17930   3.21116   3.26340
 Alpha virt. eigenvalues --    3.27601   3.29698   3.31381   3.33157   3.34263
 Alpha virt. eigenvalues --    3.39037   3.42400   3.51644   3.56077   3.56513
 Alpha virt. eigenvalues --    3.63206   3.73373   3.76874   3.82676   4.45734
 Alpha virt. eigenvalues --    4.47601   4.49901   4.51172   4.52493   4.53419
 Alpha virt. eigenvalues --    4.53668   4.54874   4.55434   4.57733   4.59751
 Alpha virt. eigenvalues --    4.60743   4.62235   4.65331   4.72707   4.73116
 Alpha virt. eigenvalues --    4.74268   4.76419   4.76875   4.79382   4.81579
 Alpha virt. eigenvalues --    4.82358   4.83856   4.93186   4.96533   4.97635
 Alpha virt. eigenvalues --    5.10434   5.13944   5.17278   5.24318
          Condensed to atoms (all electrons):
 Mulliken atomic charges:
              1
     1  C   -0.465270
     2  C   -0.415589
     3  C    0.771765
     4  O   -0.631701
     5  N   -0.801247
     6  C    0.072183
     7  C   -0.482912
     8  C   -0.371092
     9  C    0.103118
    10  N   -0.888979
    11  C    0.395800
    12  C   -0.277273
    13  C   -0.175753
    14  C   -0.239345
    15  C   -0.178200
    16  C   -0.282119
    17  C   -0.033919
    18  C   -0.239771
    19  C    0.018777
    20  C   -0.224377
    21  C   -0.209536
    22  C    0.297931
    23  C   -0.012875
    24  C   -0.199579
    25  C   -0.284533
    26  C    0.433315
    27  O   -0.664790
    28  C   -0.185068
    29  C   -0.252157
    30  C   -0.203945
    31  H    0.209641
    32  H    0.192178
    33  H    0.158118
    34  H    0.187599
    35  H    0.168696
    36  H    0.190971
    37  H    0.190002
    38  H    0.156285
    39  H    0.205948
    40  H    0.159433
    41  H    0.192293
    42  H    0.172790
    43  H    0.382944
    44  H    0.192612
    45  H    0.203630
    46  H    0.193629
    47  H    0.205220
    48  H    0.208541
    49  H    0.243761
    50  H    0.211668
    51  H    0.216740
    52  H    0.211473
    53  H    0.207890
    54  H    0.163075
    55  H    0.162847
    56  H    0.192346
    57  H    0.219784
    58  H    0.227027
 Sum of Mulliken charges=   0.00000
 Atomic charges with hydrogens summed into heavy atoms:
              1
     1  C    0.049144
     2  C   -0.034616
     3  C    0.771765
     4  O   -0.631701
     5  N   -0.801247
     6  C    0.281824
     7  C    0.038754
     8  C   -0.006009
     9  C    0.295296
    10  N   -0.506035
    11  C    0.395800
    12  C   -0.084661
    13  C    0.027877
    14  C   -0.045716
    15  C    0.027021
    16  C   -0.073578
    17  C   -0.033919
    18  C    0.003990
    19  C    0.018777
    20  C   -0.012708
    21  C    0.007204
    22  C    0.297931
    23  C   -0.012875
    24  C    0.011895
    25  C   -0.076643
    26  C    0.433315
    27  O   -0.664790
    28  C    0.333200
    29  C   -0.032374
    30  C    0.023081
    31  H    0.000000
    32  H    0.000000
    33  H    0.000000
    34  H    0.000000
    35  H    0.000000
    36  H    0.000000
    37  H    0.000000
    38  H    0.000000
    39  H    0.000000
    40  H    0.000000
    41  H    0.000000
    42  H    0.000000
    43  H    0.000000
    44  H    0.000000
    45  H    0.000000
    46  H    0.000000
    47  H    0.000000
    48  H    0.000000
    49  H    0.000000
    50  H    0.000000
    51  H    0.000000
    52  H    0.000000
    53  H    0.000000
    54  H    0.000000
    55  H    0.000000
    56  H    0.000000
    57  H    0.000000
    58  H    0.000000
 Sum of Mulliken charges=   0.00000
 Entering OneElI...
 OneElI was handed  5897201 working-precision words.
 Multipole integrals L=0 to 4 MinM= 0 MaxM= 0.
 Requested accuracy = 0.1000D-12
 PrsmSu:  NPrtUS=   1 ThrOK=F
 PRISM was handed     5049190 working-precision words and  9764 shell-pairs
 Electronic moments (au):
  -214.00000000    -1.41557884    -0.25999752    -0.69909497
 -9733.89608146 -4471.27980871 -1328.33039069    12.23472656
     0.31604457    -1.32254322 28744.55003104-17006.16715834
 -1151.49978242  2814.34209169 24443.75874717   -33.68607137
 -5921.65599703   280.11170689 -3181.54714934  4313.25296688
******************************-30441.63916442-96427.90120205
-24663.96472256 26444.70346233-14560.87392007 -5647.26760543
  4055.07361340***************-64426.83214143-29855.52241873
 11772.63822441-10075.77252267 18151.58045830
 Electronic spatial extent (au):  <R**2>= 15533.5063
 Nuclear    moments (au):
   214.00000000     0.00000000     0.00000000     0.00000000
  9589.80503244  4347.14232435  1201.50222477     0.00000000
     0.00000000     0.00000000-29175.04406350 16928.97325438
  1150.10080254 -2924.37141421-24484.45647306   -50.66019311
  5952.53538443  -249.71883672  3154.37169773 -4359.73857024
***************225512.24094865 25753.57140616 99414.89683403
 25030.36675116-26757.93203633 14354.55193280  5618.68997010
 -4125.59261235107911.85185439 57966.38712361 26510.26679051
-11483.22910448 10149.02666439-18209.34021916
 Total      moments (au):
     0.00000000    -1.41557884    -0.25999752    -0.69909497
  -144.09104902  -124.13748436  -126.82816592    12.23472656
     0.31604457    -1.32254322  -430.49403246   -77.19390395
    -1.39897988  -110.02932252   -40.69772589   -84.34626449
    30.87938740    30.39287017   -27.17545161   -46.48560336
-34759.75557502-16097.05998099 -4688.06775826  2986.99563197
   366.40202860  -313.22857400  -206.32198727   -28.57763533
   -70.51899895 -7884.29049615 -6460.44501781 -3345.25562822
   289.40911993    73.25414172   -57.75976086
 Charge=     0.0000 electrons
 Dipole moment (field-independent basis, Debye):
    X=    -3.5980    Y=    -0.6608    Z=    -1.7769  Tot=     4.0669
 Quadrupole moment (field-independent basis, Debye-Ang):
   XX=  -193.8074   YY=  -166.9692   ZZ=  -170.5882
   XY=    16.4561   XZ=     0.4251   YZ=    -1.7789
 Traceless Quadrupole moment (field-independent basis, Debye-Ang):
   XX=   -16.6858   YY=    10.1524   ZZ=     6.5334
   XY=    16.4561   XZ=     0.4251   YZ=    -1.7789
 Octapole moment (field-independent basis, Debye-Ang**2):
  XXX=  -306.4090  YYY=   -54.9436  ZZZ=    -0.9957  XYY=   -78.3146
  XXY=   -28.9671  XXZ=   -60.0344  XZZ=    21.9788  YZZ=    21.6325
  YYZ=   -19.3424  XYZ=   -33.0867
 Hexadecapole moment (field-independent basis, Debye-Ang**3):
 XXXX=-13092.1896 YYYY= -6062.9242 ZZZZ= -1765.7510 XXXY=  1125.0457
 XXXZ=   138.0046 YYYX=  -117.9769 YYYZ=   -77.7107 ZZZX=   -10.7637
 ZZZY=   -26.5608 XXYY= -2969.6016 XXZZ= -2433.3132 YYZZ= -1259.9836
 XXYZ=   109.0053 YYXZ=    27.5910 ZZXY=   -21.7551
 N-N= 2.772551315621D+03 E-N=-8.483221113693D+03  KE= 1.256253222052D+03
 Entering OneElI...
 OneElI was handed  5383173 working-precision words.
 Calculate electrostatic properties
    NBasis =   506  MinDer = 0  MaxDer = 0
    NGrid  =    58  NMatD  =   1
 Requested accuracy = 0.1000D-12
 PrsmSu:  NPrtUS=   1 ThrOK=F
 PRISM was handed     4616057 working-precision words and  8474 shell-pairs
 --------------------------------------------------------
       Center         ----      EFG at Nuclei      ----
                      3XX-RR        3YY-RR        3ZZ-RR
 --------------------------------------------------------
     1   Atom        0.007302      0.040316     -0.047618
     2   Atom        0.051927      0.025602     -0.077530
     3   Atom        0.297504     -0.372678      0.075174
     4   Atom       -0.953822     -0.311251      1.265073
     5   Atom       -0.548142      0.474842      0.073300
     6   Atom        0.091361     -0.049505     -0.041856
     7   Atom        0.029890      0.003722     -0.033612
     8   Atom       -0.004255      0.014511     -0.010255
     9   Atom       -0.002610     -0.114386      0.116996
    10   Atom        0.620586     -0.009948     -0.610639
    11   Atom       -0.182003     -0.015722      0.197725
    12   Atom       -0.068721     -0.000506      0.069227
    13   Atom       -0.168334     -0.038244      0.206578
    14   Atom       -0.102976     -0.014116      0.117092
    15   Atom       -0.150059     -0.000651      0.150710
    16   Atom       -0.075601      0.009577      0.066024
    17   Atom        0.176169      0.100856     -0.277025
    18   Atom        0.149589      0.156579     -0.306167
    19   Atom        0.131636      0.181578     -0.313214
    20   Atom        0.162901      0.133224     -0.296125
    21   Atom        0.176923      0.098795     -0.275718
    22   Atom       -0.109579      0.269764     -0.160185
    23   Atom        0.089973      0.065446     -0.155419
    24   Atom        0.179599      0.034987     -0.214586
    25   Atom        0.137223      0.011330     -0.148553
    26   Atom       -0.143596      0.243902     -0.100307
    27   Atom       -1.554125      0.262949      1.291176
    28   Atom        0.010938     -0.120451      0.109513
    29   Atom        0.152731      0.015254     -0.167985
    30   Atom        0.187094      0.037332     -0.224427
    31   Atom       -0.114730      0.054421      0.060309
    32   Atom        0.036568      0.115893     -0.152461
    33   Atom        0.059035      0.104960     -0.163995
    34   Atom       -0.123332     -0.009980      0.133312
    35   Atom        0.098093     -0.230990      0.132897
    36   Atom       -0.133472      0.026287      0.107185
    37   Atom        0.112789     -0.242192      0.129403
    38   Atom        0.074162     -0.018959     -0.055202
    39   Atom       -0.058274     -0.057916      0.116190
    40   Atom       -0.106348      0.048757      0.057590
    41   Atom        0.006536     -0.133651      0.127115
    42   Atom        0.041962      0.115309     -0.157270
    43   Atom        0.205276      0.156693     -0.361970
    44   Atom        0.164877      0.139551     -0.304428
    45   Atom        0.032286     -0.112979      0.080692
    46   Atom        0.023989     -0.001242     -0.022747
    47   Atom        0.161403      0.141163     -0.302566
    48   Atom        0.044062     -0.110638      0.066576
    49   Atom        0.020942     -0.179940      0.158998
    50   Atom        0.042768     -0.202618      0.159850
    51   Atom        0.033926     -0.202548      0.168623
    52   Atom        0.048505     -0.115609      0.067104
    53   Atom        0.031396     -0.123089      0.091693
    54   Atom        0.137042      0.144306     -0.281348
    55   Atom        0.125077     -0.193784      0.068707
    56   Atom       -0.270085      0.126859      0.143226
    57   Atom        0.045911     -0.116782      0.070871
    58   Atom        0.028375     -0.113300      0.084925
 --------------------------------------------------------
                        XY            XZ            YZ
 --------------------------------------------------------
     1   Atom       -0.010835     -0.061833      0.009434
     2   Atom       -0.020034      0.030616      0.035582
     3   Atom       -0.023025     -0.141719     -0.328598
     4   Atom       -0.002153      0.158795     -0.994326
     5   Atom       -0.055951     -0.040726      0.746534
     6   Atom       -0.077135      0.155071      0.213495
     7   Atom       -0.015006      0.029960     -0.043248
     8   Atom        0.039043      0.021753      0.018557
     9   Atom        0.130021     -0.033683      0.097412
    10   Atom        0.922493      0.184330      0.122529
    11   Atom       -0.216737      0.050772     -0.174620
    12   Atom       -0.141056     -0.044649      0.005880
    13   Atom       -0.258855     -0.068009     -0.034098
    14   Atom       -0.167195     -0.023951     -0.042692
    15   Atom       -0.285866     -0.053117     -0.044224
    16   Atom       -0.140732     -0.042752     -0.000389
    17   Atom       -0.010399     -0.006034     -0.111621
    18   Atom       -0.005778     -0.015917     -0.086898
    19   Atom       -0.001883     -0.022266     -0.077497
    20   Atom       -0.021411     -0.025777     -0.067594
    21   Atom       -0.004686     -0.036919     -0.075483
    22   Atom       -0.006537      0.015825     -0.089684
    23   Atom        0.007394     -0.012837      0.176170
    24   Atom        0.029471     -0.010978      0.214997
    25   Atom        0.009709     -0.009279      0.130711
    26   Atom        0.033036      0.012706      0.272612
    27   Atom       -0.764562     -0.262445     -0.763862
    28   Atom       -0.253711     -0.132076     -0.161557
    29   Atom        0.000331     -0.023415      0.150452
    30   Atom        0.001558     -0.024389      0.225984
    31   Atom       -0.159610     -0.138476     -0.077812
    32   Atom       -0.047982     -0.183003     -0.091012
    33   Atom       -0.071749      0.166530      0.130233
    34   Atom        0.211480      0.061403     -0.055773
    35   Atom       -0.144916     -0.038381     -0.079318
    36   Atom        0.193167      0.100818     -0.062811
    37   Atom       -0.137461     -0.029046     -0.075764
    38   Atom       -0.118200      0.135089      0.183137
    39   Atom        0.210430     -0.080593      0.081010
    40   Atom       -0.164022     -0.152601     -0.104012
    41   Atom       -0.195285      0.061580      0.087993
    42   Atom       -0.053338     -0.178746     -0.103406
    43   Atom        0.048927     -0.012298      0.113009
    44   Atom        0.016173      0.009156      0.087304
    45   Atom        0.195560     -0.092436      0.137874
    46   Atom        0.161766      0.156409     -0.160887
    47   Atom        0.007386      0.011643      0.085724
    48   Atom        0.196802     -0.092136      0.145488
    49   Atom        0.200782     -0.033549      0.060508
    50   Atom       -0.190091      0.032974      0.065787
    51   Atom        0.197854     -0.021093      0.036038
    52   Atom        0.162586      0.097191     -0.171711
    53   Atom       -0.176324     -0.091962     -0.160301
    54   Atom       -0.005114      0.060583     -0.039572
    55   Atom        0.076401     -0.048816      0.166163
    56   Atom        0.079294      0.066104     -0.021830
    57   Atom        0.163900      0.097983     -0.169624
    58   Atom       -0.177325     -0.092854     -0.152609
 --------------------------------------------------------


 ---------------------------------------------------------------------------------
              Nuclear Quadrupole in Principal Axis System
 ---------------------------------------------------------------------------------

       Atom             a.u.   MegaHertz   Gauss  10(-4) cm-1        Axes

              Baa    -0.0878   -11.788    -4.206    -3.932  0.5436 -0.0158  0.8392
     1 C(13)  Bbb     0.0293     3.926     1.401     1.310  0.5229  0.7885 -0.3238
              Bcc     0.0586     7.862     2.805     2.623  0.6566 -0.6149 -0.4369
 
              Baa    -0.0970   -13.013    -4.643    -4.341 -0.2311 -0.3059  0.9236
     2 C(13)  Bbb     0.0332     4.456     1.590     1.486  0.3264  0.8699  0.3697
              Bcc     0.0638     8.556     3.053     2.854  0.9166 -0.3869  0.1012
 
              Baa    -0.5554   -74.524   -26.592   -24.858  0.1029  0.8724  0.4778
     3 C(13)  Bbb     0.1602    21.499     7.671     7.171  0.6105 -0.4346  0.6621
              Bcc     0.3951    53.025    18.921    17.687  0.7853  0.2235 -0.5774
 
              Baa    -0.9848    71.259    25.427    23.770  0.9432 -0.2741 -0.1877
     4 O(17)  Bbb    -0.7686    55.614    19.844    18.551  0.3279  0.8585  0.3942
              Bcc     1.7534  -126.873   -45.271   -42.320  0.0531 -0.4333  0.8997
 
              Baa    -0.5512   -21.258    -7.585    -7.091  0.9985  0.0543  0.0002
     5 N(14)  Bbb    -0.4989   -19.243    -6.866    -6.419  0.0329 -0.6069  0.7941
              Bcc     1.0501    40.501    14.452    13.510 -0.0432  0.7929  0.6078
 
              Baa    -0.3246   -43.564   -15.545   -14.531 -0.3708 -0.6320  0.6805
     6 C(13)  Bbb     0.1093    14.673     5.236     4.895  0.6848 -0.6810 -0.2593
              Bcc     0.2153    28.891    10.309     9.637  0.6273  0.3698  0.6853
 
              Baa    -0.0653    -8.763    -3.127    -2.923 -0.1901  0.4912  0.8500
     7 C(13)  Bbb     0.0041     0.555     0.198     0.185  0.6843  0.6871 -0.2441
              Bcc     0.0612     8.208     2.929     2.738  0.7040 -0.5353  0.4668
 
              Baa    -0.0369    -4.947    -1.765    -1.650  0.8075 -0.5016 -0.3103
     8 C(13)  Bbb    -0.0202    -2.705    -0.965    -0.902  0.0265 -0.4948  0.8686
              Bcc     0.0570     7.652     2.731     2.553  0.5892  0.7097  0.3862
 
              Baa    -0.2290   -30.733   -10.966   -10.251 -0.5091  0.8143 -0.2788
     9 C(13)  Bbb     0.0748    10.034     3.580     3.347  0.8508  0.4270 -0.3064
              Bcc     0.1542    20.699     7.386     6.904  0.1305  0.3932  0.9102
 
              Baa    -0.6712   -25.885    -9.237    -8.634 -0.5879  0.7817  0.2081
    10 N(14)  Bbb    -0.6346   -24.474    -8.733    -8.164  0.0305 -0.2356  0.9714
              Bcc     1.3057    50.359    17.969    16.798  0.8083  0.5774  0.1147
 
              Baa    -0.3379   -45.343   -16.179   -15.125  0.7924  0.5981  0.1199
    11 C(13)  Bbb    -0.0061    -0.821    -0.293    -0.274 -0.5285  0.5752  0.6244
              Bcc     0.3440    46.163    16.472    15.398  0.3045 -0.5581  0.7719
 
              Baa    -0.1837   -24.651    -8.796    -8.223  0.7880  0.6028  0.1251
    12 C(13)  Bbb     0.0548     7.353     2.624     2.453  0.2170 -0.4622  0.8598
              Bcc     0.1289    17.298     6.172     5.770 -0.5761  0.6504  0.4951
 
              Baa    -0.3797   -50.951   -18.180   -16.995  0.7844  0.6073  0.1263
    13 C(13)  Bbb     0.1597    21.434     7.648     7.149 -0.5668  0.7845 -0.2518
              Bcc     0.2200    29.517    10.532     9.846 -0.2520  0.1259  0.9595
 
              Baa    -0.2373   -31.840   -11.361   -10.621  0.7821  0.6102  0.1264
    14 C(13)  Bbb     0.0991    13.298     4.745     4.436 -0.5419  0.5659  0.6214
              Bcc     0.1382    18.542     6.616     6.185  0.3077 -0.5545  0.7732
 
              Baa    -0.3798   -50.967   -18.186   -17.001  0.7845  0.6065  0.1291
    15 C(13)  Bbb     0.1596    21.417     7.642     7.144 -0.1275 -0.0460  0.9908
              Bcc     0.2202    29.551    10.544     9.857 -0.6069  0.7937 -0.0412
 
              Baa    -0.1848   -24.805    -8.851    -8.274  0.8022  0.5809  0.1376
    16 C(13)  Bbb     0.0594     7.973     2.845     2.659  0.1430 -0.4107  0.9005
              Bcc     0.1254    16.832     6.006     5.615 -0.5797  0.7027  0.4125
 
              Baa    -0.3077   -41.288   -14.733   -13.772  0.0177  0.2639  0.9644
    17 C(13)  Bbb     0.1298    17.422     6.217     5.811  0.1786  0.9482 -0.2628
              Bcc     0.1779    23.866     8.516     7.961  0.9838 -0.1769  0.0303
 
              Baa    -0.3225   -43.282   -15.444   -14.437  0.0353  0.1788  0.9833
    18 C(13)  Bbb     0.1498    20.105     7.174     6.706  0.9915  0.1167 -0.0569
              Bcc     0.1727    23.177     8.270     7.731 -0.1249  0.9769 -0.1731
 
              Baa    -0.3262   -43.767   -15.617   -14.599  0.0486  0.1509  0.9874
    19 C(13)  Bbb     0.1327    17.805     6.353     5.939  0.9985 -0.0318 -0.0443
              Bcc     0.1935    25.962     9.264     8.660  0.0247  0.9880 -0.1522
 
              Baa    -0.3083   -41.367   -14.761   -13.798  0.0609  0.1539  0.9862
    20 C(13)  Bbb     0.1340    17.976     6.414     5.996  0.4882  0.8572 -0.1640
              Bcc     0.1743    23.390     8.346     7.802  0.8706 -0.4914  0.0229
 
              Baa    -0.2933   -39.357   -14.044   -13.128  0.0787  0.1894  0.9787
    21 C(13)  Bbb     0.1133    15.210     5.427     5.074 -0.0362  0.9817 -0.1870
              Bcc     0.1799    24.147     8.616     8.054  0.9962  0.0207 -0.0842
 
              Baa    -0.1810   -24.287    -8.666    -8.101 -0.1960  0.1886  0.9623
    22 C(13)  Bbb    -0.1070   -14.353    -5.122    -4.788  0.9803  0.0617  0.1876
              Bcc     0.2879    38.640    13.788    12.889 -0.0240  0.9801 -0.1970
 
              Baa    -0.2535   -34.023   -12.140   -11.349  0.0431 -0.4838  0.8741
    23 C(13)  Bbb     0.0906    12.159     4.339     4.056  0.9991  0.0178 -0.0394
              Bcc     0.1629    21.864     7.802     7.293  0.0035  0.8750  0.4841
 
              Baa    -0.3395   -45.560   -16.257   -15.197  0.0467 -0.5001  0.8647
    24 C(13)  Bbb     0.1469    19.714     7.035     6.576 -0.5092  0.7328  0.4513
              Bcc     0.1926    25.846     9.222     8.621  0.8594  0.4614  0.2204
 
              Baa    -0.2223   -29.829   -10.644    -9.950  0.0357 -0.4891  0.8715
    25 C(13)  Bbb     0.0843    11.315     4.037     3.774 -0.0734  0.8684  0.4904
              Bcc     0.1380    18.514     6.606     6.176  0.9967  0.0814  0.0049
 
              Baa    -0.2508   -33.657   -12.010   -11.227  0.0457 -0.4845  0.8736
    26 C(13)  Bbb    -0.1457   -19.545    -6.974    -6.520  0.9968 -0.0346 -0.0714
              Bcc     0.3965    53.202    18.984    17.746  0.0648  0.8741  0.4813
 
              Baa    -1.9178   138.769    49.516    46.288  0.9115  0.3771  0.1643
    27 O(17)  Bbb     0.2144   -15.511    -5.535    -5.174 -0.4090  0.7884  0.4595
              Bcc     1.7034  -123.258   -43.981   -41.114  0.0438 -0.4861  0.8728
 
              Baa    -0.4019   -53.934   -19.245   -17.991  0.5695  0.7301  0.3777
    28 C(13)  Bbb     0.1928    25.869     9.231     8.629  0.0449 -0.4864  0.8726
              Bcc     0.2091    28.065    10.014     9.362  0.8208 -0.4800 -0.3098
 
              Baa    -0.2536   -34.026   -12.141   -11.350  0.0506 -0.4878  0.8715
    29 C(13)  Bbb     0.0976    13.093     4.672     4.367  0.1945  0.8607  0.4705
              Bcc     0.1560    20.933     7.469     6.982  0.9796 -0.1457 -0.1385
 
              Baa    -0.3556   -47.715   -17.026   -15.916  0.0404 -0.4983  0.8661
    30 C(13)  Bbb     0.1629    21.863     7.801     7.293  0.3962  0.8037  0.4439
              Bcc     0.1927    25.852     9.225     8.623  0.9173 -0.3252 -0.2298
 
              Baa    -0.2840  -151.534   -54.071   -50.546  0.7804  0.4643  0.4188
    31 H(1)   Bbb     0.1325    70.693    25.225    23.581 -0.2300 -0.4097  0.8828
              Bcc     0.1515    80.842    28.846    26.966 -0.5815  0.7852  0.2129
 
              Baa    -0.2899  -154.681   -55.194   -51.596  0.5012  0.2454  0.8298
    32 H(1)   Bbb     0.1381    73.665    26.285    24.572 -0.5589  0.8239  0.0939
              Bcc     0.1518    81.016    28.909    27.024  0.6606  0.5109 -0.5501
 
              Baa    -0.3066  -163.592   -58.374   -54.568 -0.4442 -0.3398  0.8290
    33 H(1)   Bbb     0.1476    78.769    28.107    26.275  0.8431  0.1545  0.5151
              Bcc     0.1590    84.822    30.267    28.294 -0.3031  0.9277  0.2178
 
              Baa    -0.3013  -160.773   -57.368   -53.628  0.7777 -0.6003 -0.1869
    34 H(1)   Bbb     0.1437    76.682    27.362    25.578  0.4945  0.4004  0.7715
              Bcc     0.1576    84.091    30.006    28.050  0.3882  0.6923 -0.6082
 
              Baa    -0.3034  -161.863   -57.757   -53.992  0.3495  0.9159  0.1973
    35 H(1)   Bbb     0.1439    76.761    27.390    25.605  0.5583 -0.3727  0.7413
              Bcc     0.1595    85.101    30.366    28.387  0.7525 -0.1489 -0.6416
 
              Baa    -0.2975  -158.711   -56.632   -52.940  0.7990 -0.5314 -0.2816
    36 H(1)   Bbb     0.1411    75.275    26.860    25.109  0.0898 -0.3576  0.9296
              Bcc     0.1564    83.436    29.772    27.831  0.5946  0.7680  0.2380
 
              Baa    -0.3044  -162.390   -57.945   -54.168  0.3192  0.9297  0.1838
    37 H(1)   Bbb     0.1440    76.843    27.419    25.632  0.1136 -0.2300  0.9665
              Bcc     0.1603    85.547    30.525    28.536  0.9409 -0.2876 -0.1791
 
              Baa    -0.3059  -163.200   -58.234   -54.438 -0.4270 -0.6049  0.6721
    38 H(1)   Bbb     0.1463    78.075    27.859    26.043 -0.1952  0.7874  0.5847
              Bcc     0.1595    85.125    30.375    28.395  0.8829 -0.1185  0.4544
 
              Baa    -0.2999  -160.016   -57.098   -53.376  0.6820 -0.6817  0.2648
    39 H(1)   Bbb     0.1475    78.725    28.091    26.260 -0.2357  0.1379  0.9620
              Bcc     0.1524    81.291    29.007    27.116  0.6923  0.7185  0.0667
 
              Baa    -0.3044  -162.396   -57.947   -54.169  0.7493  0.4818  0.4543
    40 H(1)   Bbb     0.1466    78.229    27.914    26.095 -0.6478  0.3905  0.6541
              Bcc     0.1577    84.166    30.033    28.075 -0.1377  0.7844 -0.6047
 
              Baa    -0.2982  -159.086   -56.766   -53.065  0.5578  0.7931 -0.2449
    41 H(1)   Bbb     0.1439    76.789    27.400    25.614  0.8212 -0.5701  0.0242
              Bcc     0.1542    82.297    29.366    27.451  0.1204  0.2146  0.9693
 
              Baa    -0.2952  -157.490   -56.196   -52.533  0.4840  0.2724  0.8316
    42 H(1)   Bbb     0.1414    75.448    26.922    25.167  0.7328 -0.6455 -0.2151
              Bcc     0.1538    82.042    29.275    27.366  0.4782  0.7135 -0.5120
 
              Baa    -0.3863  -206.137   -73.555   -68.760  0.0374 -0.2068  0.9777
    43 H(1)   Bbb     0.1460    77.905    27.799    25.986 -0.6020  0.7762  0.1873
              Bcc     0.2403   128.232    45.756    42.773  0.7976  0.5955  0.0955
 
              Baa    -0.3211  -171.298   -61.124   -57.139 -0.0123 -0.1858  0.9825
    44 H(1)   Bbb     0.1424    75.970    27.108    25.341 -0.6148  0.7763  0.1391
              Bcc     0.1787    95.329    34.016    31.798  0.7886  0.6023  0.1238
 
              Baa    -0.3180  -169.693   -60.551   -56.604 -0.5252  0.7593 -0.3843
    45 H(1)   Bbb     0.1494    79.721    28.447    26.592 -0.3297  0.2347  0.9144
              Bcc     0.1686    89.972    32.104    30.011  0.7845  0.6070  0.1271
 
              Baa    -0.3201  -170.803   -60.947   -56.974 -0.5471  0.5814  0.6023
    46 H(1)   Bbb     0.1458    77.772    27.751    25.942  0.2890 -0.5440  0.7877
              Bcc     0.1744    93.031    33.196    31.032  0.7856  0.6050  0.1296
 
              Baa    -0.3188  -170.077   -60.688   -56.732 -0.0210 -0.1829  0.9829
[...]
 **** Fit       0.013148
 **** Fit       0.012958
 **** Fit       0.012513
 **** Fit       0.012307
 **** Fit       0.012210
 **** Fit       0.012145
 **** Fit       0.012068
 **** Fit       0.013204
 **** Fit       0.012430
 **** Fit       0.012001
 **** Fit       0.011729
 **** Fit       0.011498
 **** Fit       0.011229
 **** Fit       0.010860
 **** Fit       0.010345
 **** Fit       0.009659
 **** Fit       0.012661
 **** Fit       0.011863
 **** Fit       0.011388
 **** Fit       0.011055
 **** Fit       0.010742
 **** Fit       0.010359
 **** Fit       0.009832
 **** Fit       0.009099
 **** Fit       0.008115
 **** Fit       0.006894
 **** Fit       0.010988
 **** Fit       0.010562
 **** Fit       0.010244
 **** Fit       0.009931
 **** Fit       0.009531
 **** Fit       0.008966
 **** Fit       0.008164
 **** Fit       0.007065
 **** Fit       0.005636
 **** Fit       0.009221
 **** Fit       0.009097
 **** Fit       0.008897
 **** Fit       0.008572
 **** Fit       0.008058
 **** Fit       0.007290
 **** Fit       0.006205
 **** Fit       0.004748
 **** Fit       0.002873
 **** Fit       0.007496
 **** Fit       0.007474
 **** Fit       0.007198
 **** Fit       0.006629
 **** Fit       0.005706
 **** Fit       0.004360
 **** Fit       0.002502
 **** Fit       0.005832
 **** Fit       0.005661
 **** Fit       0.005064
 **** Fit       0.003997
 **** Fit       0.002385
 **** Fit       0.003560
 **** Fit       0.009544
 **** Fit       0.010616
 **** Fit       0.012142
 **** Fit       0.010613
 **** Fit       0.010621
 **** Fit       0.011008
 **** Fit       0.011699
 **** Fit       0.012668
 **** Fit       0.012570
 **** Fit       0.011815
 **** Fit       0.011583
 **** Fit       0.011679
 **** Fit       0.011979
 **** Fit       0.012378
 **** Fit       0.012759
 **** Fit       0.012177
 **** Fit       0.011946
 **** Fit       0.011895
 **** Fit       0.011876
 **** Fit       0.011709
 **** Fit       0.011115
 **** Fit       0.013627
 **** Fit       0.012680
 **** Fit       0.012149
 **** Fit       0.011829
 **** Fit       0.011551
 **** Fit       0.011136
 **** Fit       0.010353
 **** Fit       0.008879
 **** Fit       0.013915
 **** Fit       0.012877
 **** Fit       0.012195
 **** Fit       0.011717
 **** Fit       0.011291
 **** Fit       0.010758
 **** Fit       0.009936
 **** Fit       0.008604
 **** Fit       0.006527
 **** Fit       0.012928
 **** Fit       0.012255
 **** Fit       0.011683
 **** Fit       0.011185
 **** Fit       0.010649
 **** Fit       0.009924
 **** Fit       0.008835
 **** Fit       0.007208
 **** Fit       0.004944
 **** Fit       0.002149
 **** Fit       0.001368
 **** Fit      -0.000704
 **** Fit       0.011064
 **** Fit       0.011068
 **** Fit       0.010786
 **** Fit       0.010367
 **** Fit       0.009780
 **** Fit       0.008912
 **** Fit       0.007631
 **** Fit       0.005861
 **** Fit       0.003679
 **** Fit       0.002674
 **** Fit       0.000771
 **** Fit       0.009095
 **** Fit       0.009490
 **** Fit       0.009355
 **** Fit       0.008837
 **** Fit       0.007911
 **** Fit       0.006515
 **** Fit       0.004693
 **** Fit       0.003435
 **** Fit       0.001523
 **** Fit       0.006840
 **** Fit       0.007815
 **** Fit       0.007762
 **** Fit       0.006913
 **** Fit       0.005379
 **** Fit       0.003858
 **** Fit       0.002091
 **** Fit       0.004299
 **** Fit       0.006010
 **** Fit       0.005668
 **** Fit       0.004101
 **** Fit       0.010523
 **** Fit       0.008568
 **** Fit       0.012923
 **** Fit       0.011160
 **** Fit       0.009756
 **** Fit       0.014659
 **** Fit       0.013104
 **** Fit       0.011886
 **** Fit       0.010969
 **** Fit       0.010378
 **** Fit       0.016319
 **** Fit       0.014862
 **** Fit       0.013697
 **** Fit       0.012805
 **** Fit       0.012210
 **** Fit       0.011997
 **** Fit       0.016933
 **** Fit       0.015643
 **** Fit       0.014593
 **** Fit       0.013786
 **** Fit       0.013262
 **** Fit       0.013118
 **** Fit       0.013544
 **** Fit       0.017656
 **** Fit       0.016420
 **** Fit       0.015390
 **** Fit       0.014566
 **** Fit       0.013981
 **** Fit       0.013715
 **** Fit       0.013916
 **** Fit       0.017996
 **** Fit       0.016818
 **** Fit       0.015829
 **** Fit       0.015005
 **** Fit       0.014364
 **** Fit       0.013956
 **** Fit       0.013876
 **** Fit       0.014276
 **** Fit       0.016536
 **** Fit       0.015605
 **** Fit       0.014812
 **** Fit       0.014167
 **** Fit       0.013713
 **** Fit       0.013517
 **** Fit       0.015835
 **** Fit       0.015035
 **** Fit       0.014299
 **** Fit       0.013638
 **** Fit       0.013081
 **** Fit       0.012631
 **** Fit       0.012192
 **** Fit       0.014604
 **** Fit       0.014221
 **** Fit       0.013634
 **** Fit       0.012957
 **** Fit       0.012227
 **** Fit       0.011397
 **** Fit       0.010226
 **** Fit       0.009514
 **** Fit       0.011717
 **** Fit       0.012374
 **** Fit       0.012116
 **** Fit       0.011356
 **** Fit       0.010156
 **** Fit       0.009530
 **** Fit       0.010179
 **** Fit       0.008921
 **** Fit       0.007759
 **** Fit      -0.002434
 **** Fit      -0.001570
 **** Fit      -0.000540
 **** Fit       0.000772
 **** Fit       0.002327
 **** Fit       0.004015
 **** Fit       0.005730
 **** Fit       0.007390
 **** Fit       0.008936
 **** Fit       0.010317
 **** Fit       0.011504
 **** Fit       0.012491
 **** Fit       0.013293
 **** Fit       0.013934
 **** Fit       0.014442
 **** Fit       0.014851
 **** Fit       0.015212
 **** Fit       0.015593
 **** Fit       0.016077
 **** Fit       0.016754
 **** Fit      -0.000336
 **** Fit       0.000222
 **** Fit       0.000926
 **** Fit       0.001800
 **** Fit       0.002900
 **** Fit       0.004205
 **** Fit       0.005634
 **** Fit       0.007096
 **** Fit       0.008511
 **** Fit       0.009817
 **** Fit       0.010971
 **** Fit       0.011950
 **** Fit       0.012754
 **** Fit       0.013398
 **** Fit       0.013909
 **** Fit       0.014327
 **** Fit       0.014705
 **** Fit       0.015097
 **** Fit       0.015529
 **** Fit       0.015919
 **** Fit       0.002861
 **** Fit       0.002756
 **** Fit       0.003113
 **** Fit       0.003768
 **** Fit       0.004676
 **** Fit       0.005789
 **** Fit       0.007027
 **** Fit       0.008298
 **** Fit       0.009518
 **** Fit       0.010623
 **** Fit       0.011575
 **** Fit       0.012358
 **** Fit       0.012979
 **** Fit       0.013460
 **** Fit       0.013834
 **** Fit       0.014122
 **** Fit       0.014293
 **** Fit       0.014178
 **** Fit       0.013418
 **** Fit       0.007533
 **** Fit       0.005931
 **** Fit       0.005193
 **** Fit       0.005170
 **** Fit       0.005638
 **** Fit       0.006456
 **** Fit       0.007507
 **** Fit       0.008667
 **** Fit       0.009811
 **** Fit       0.010844
 **** Fit       0.011705
 **** Fit       0.012369
 **** Fit       0.012836
 **** Fit       0.013105
 **** Fit       0.013118
 **** Fit       0.012696
 **** Fit       0.011564
 **** Fit       0.009669
 **** Fit       0.008628
 **** Fit       0.007368
 **** Fit       0.007008
 **** Fit       0.007424
 **** Fit       0.008344
 **** Fit       0.009485
 **** Fit       0.010586
 **** Fit       0.011460
 **** Fit       0.011998
 **** Fit       0.012107
 **** Fit       0.011606
 **** Fit       0.010329
 **** Fit       0.009378
 **** Fit       0.008576
 **** Fit       0.009134
 **** Fit       0.010291
 **** Fit       0.011035
 **** Fit       0.010708
 **** Fit       0.009907
 **** Fit      -0.001487
 **** Fit       0.002494
 **** Fit       0.001313
 **** Fit      -0.002798
 **** Fit       0.004235
 **** Fit       0.004586
 **** Fit       0.004061
 **** Fit       0.002586
 **** Fit       0.000189
 **** Fit       0.005669
 **** Fit       0.006199
 **** Fit       0.006327
 **** Fit       0.006025
 **** Fit       0.005207
 **** Fit       0.003759
 **** Fit       0.001614
 **** Fit      -0.001130
 **** Fit       0.007390
 **** Fit       0.007703
 **** Fit       0.007820
 **** Fit       0.007706
 **** Fit       0.007293
 **** Fit       0.006487
 **** Fit       0.005166
 **** Fit       0.003200
 **** Fit       0.000529
 **** Fit       0.008994
 **** Fit       0.009094
 **** Fit       0.009096
 **** Fit       0.008946
 **** Fit       0.008577
 **** Fit       0.007901
 **** Fit       0.006796
 **** Fit       0.005093
 **** Fit       0.002599
 **** Fit       0.010267
 **** Fit       0.010258
 **** Fit       0.010253
 **** Fit       0.010202
 **** Fit       0.010052
 **** Fit       0.009749
 **** Fit       0.009218
 **** Fit       0.008352
 **** Fit       0.006989
 **** Fit       0.004885
 **** Fit       0.011380
 **** Fit       0.011298
 **** Fit       0.011238
 **** Fit       0.011145
 **** Fit       0.010973
 **** Fit       0.010663
 **** Fit       0.010138
 **** Fit       0.009271
 **** Fit       0.007846
 **** Fit       0.012482
 **** Fit       0.012294
 **** Fit       0.012186
 **** Fit       0.012107
 **** Fit       0.012013
 **** Fit       0.011863
 **** Fit       0.011609
 **** Fit       0.011177
 **** Fit       0.010432
 **** Fit       0.009118
 **** Fit       0.013382
 **** Fit       0.013151
 **** Fit       0.013020
 **** Fit       0.012945
 **** Fit       0.012890
 **** Fit       0.012828
 **** Fit       0.012727
 **** Fit       0.012538
 **** Fit       0.012159
 **** Fit       0.014128
 **** Fit       0.013901
 **** Fit       0.013792
 **** Fit       0.013768
 **** Fit       0.013810
 **** Fit       0.013912
 **** Fit       0.014075
 **** Fit       0.014939
 **** Fit       0.014691
 **** Fit       0.014611
 **** Fit       0.014681
 **** Fit       0.014913
 **** Fit       0.015356
 **** Fit       0.015514
 **** Fit       0.015513
 **** Fit       0.015761
 **** Fit       0.016332
 **** Fit       0.016780
 **** Fit       0.017631
 **** Fit      -0.002459
 **** Fit       0.000788
 **** Fit       0.002783
 **** Fit       0.003731
 **** Fit      -0.002074
 **** Fit       0.001010
 **** Fit       0.003164
 **** Fit       0.004597
 **** Fit       0.005468
 **** Fit       0.005901
 **** Fit      -0.004064
 **** Fit      -0.000414
 **** Fit       0.002248
 **** Fit       0.004186
 **** Fit       0.005573
 **** Fit       0.006533
 **** Fit       0.007167
 **** Fit       0.007563
 **** Fit      -0.004687
 **** Fit      -0.000834
 **** Fit       0.002001
 **** Fit       0.004121
 **** Fit       0.005708
 **** Fit       0.006882
 **** Fit       0.007736
 **** Fit       0.008348
 **** Fit       0.008793
 **** Fit       0.009152
 **** Fit      -0.005080
 **** Fit      -0.001181
 **** Fit       0.001718
 **** Fit       0.003929
 **** Fit       0.005633
 **** Fit       0.006948
 **** Fit       0.007955
 **** Fit       0.008721
 **** Fit       0.009305
 **** Fit       0.009769
 **** Fit       0.010181
 **** Fit       0.010620
 **** Fit      -0.002752
 **** Fit       0.000595
 **** Fit       0.003133
 **** Fit       0.005101
 **** Fit       0.006641
 **** Fit       0.007849
 **** Fit       0.008792
 **** Fit       0.009530
 **** Fit       0.010117
 **** Fit       0.010611
 **** Fit       0.011078
 **** Fit       0.011598
 **** Fit      -0.004370
 **** Fit      -0.000647
 **** Fit       0.002161
 **** Fit       0.004347
 **** Fit       0.006078
 **** Fit       0.007459
 **** Fit       0.008564
 **** Fit       0.009449
 **** Fit       0.010163
 **** Fit       0.010754
 **** Fit       0.011277
 **** Fit       0.011792
 **** Fit       0.012375
 **** Fit      -0.004512
 **** Fit      -0.000807
 **** Fit       0.002007
 **** Fit       0.004216
 **** Fit       0.005984
 **** Fit       0.007415
 **** Fit       0.008578
 **** Fit       0.009527
 **** Fit       0.010307
 **** Fit       0.010964
 **** Fit       0.011547
 **** Fit       0.012110
 **** Fit       0.012722
 **** Fit      -0.002106
 **** Fit       0.001023
 **** Fit       0.003465
 **** Fit       0.005420
 **** Fit       0.007008
 **** Fit       0.008308
 **** Fit       0.009378
 **** Fit       0.010266
 **** Fit       0.011021
 **** Fit       0.011691
 **** Fit       0.012336
 **** Fit       0.013024
 **** Fit       0.000987
 **** Fit       0.003447
 **** Fit       0.005436
 **** Fit       0.007066
 **** Fit       0.008413
 **** Fit       0.009535
 **** Fit       0.010480
 **** Fit       0.011302
 **** Fit       0.012057
 **** Fit       0.012815
 **** Fit       0.013657
 **** Fit       0.003560
 **** Fit       0.005492
 **** Fit       0.007111
 **** Fit       0.008474
 **** Fit       0.009630
 **** Fit       0.010628
 **** Fit       0.011520
 **** Fit       0.012370
 **** Fit       0.013255
 **** Fit       0.005154
 **** Fit       0.006858
 **** Fit       0.008330
 **** Fit       0.009603
 **** Fit       0.010723
 **** Fit       0.011753
 **** Fit       0.012773
 **** Fit       0.008269
 **** Fit       0.009623
 **** Fit       0.010860
 **** Fit      -0.003640
 **** Fit      -0.002091
 **** Fit      -0.002202
 **** Fit      -0.003762
 **** Fit      -0.005400
 **** Fit      -0.001789
 **** Fit      -0.000783
 **** Fit      -0.000583
 **** Fit      -0.001130
 **** Fit      -0.002401
 **** Fit      -0.004170
 **** Fit      -0.005964
 **** Fit      -0.000310
 **** Fit       0.000233
 **** Fit       0.000411
 **** Fit       0.000234
 **** Fit      -0.000385
 **** Fit      -0.001507
 **** Fit      -0.003099
 **** Fit      -0.004990
 **** Fit      -0.006862
 **** Fit       0.000771
 **** Fit       0.000908
 **** Fit       0.000984
 **** Fit       0.000900
 **** Fit       0.000521
 **** Fit      -0.000254
 **** Fit      -0.001485
 **** Fit      -0.003176
 **** Fit      -0.005248
 **** Fit      -0.007482
 **** Fit      -0.009501
 **** Fit       0.001179
 **** Fit       0.001090
 **** Fit       0.001142
 **** Fit       0.001114
 **** Fit       0.000836
 **** Fit       0.000198
 **** Fit      -0.000874
 **** Fit      -0.002435
 **** Fit      -0.004512
 **** Fit      -0.007064
 **** Fit      -0.009904
 **** Fit       0.000854
 **** Fit       0.000772
 **** Fit       0.000907
 **** Fit       0.000978
 **** Fit       0.000813
 **** Fit       0.000314
 **** Fit      -0.000591
 **** Fit      -0.001969
 **** Fit      -0.003897
 **** Fit      -0.006449
 **** Fit      -0.009665
 **** Fit       0.000253
 **** Fit      -0.000047
 **** Fit       0.000170
 **** Fit       0.000444
 **** Fit       0.000525
 **** Fit       0.000285
 **** Fit      -0.000352
 **** Fit      -0.001460
 **** Fit      -0.003131
 **** Fit      -0.005497
 **** Fit      -0.008735
 **** Fit      -0.001254
 **** Fit      -0.001011
 **** Fit      -0.000552
 **** Fit      -0.000227
 **** Fit      -0.000201
 **** Fit      -0.000556
 **** Fit      -0.001356
 **** Fit      -0.002688
 **** Fit      -0.004684
 **** Fit      -0.007554
 **** Fit      -0.002718
 **** Fit      -0.002405
 **** Fit      -0.001795
 **** Fit      -0.001303
 **** Fit      -0.001116
 **** Fit      -0.001320
 **** Fit      -0.001980
 **** Fit      -0.003180
 **** Fit      -0.005063
 **** Fit      -0.007871
 **** Fit      -0.003688
 **** Fit      -0.002956
 **** Fit      -0.002444
 **** Fit      -0.002315
 **** Fit      -0.002653
 **** Fit      -0.003541
 **** Fit      -0.005111
 **** Fit      -0.007606
 **** Fit      -0.004859
 **** Fit      -0.004126
 **** Fit      -0.003761
 **** Fit      -0.003891
 **** Fit      -0.004616
 **** Fit      -0.006087
 **** Fit      -0.008582
 **** Fit      -0.005581
 **** Fit      -0.005463
 **** Fit      -0.005956
 **** Fit      -0.007217
 **** Fit      -0.009526
 **** Fit      -0.002820
 **** Fit      -0.002494
 **** Fit      -0.001616
 **** Fit      -0.001756
 **** Fit      -0.002380
 **** Fit      -0.001547
 **** Fit      -0.001102
 **** Fit      -0.000813
 **** Fit      -0.000835
 **** Fit      -0.003716
 **** Fit      -0.002579
 **** Fit      -0.001912
 **** Fit      -0.001635
 **** Fit      -0.001428
 **** Fit      -0.001030
 **** Fit      -0.000487
 **** Fit      -0.000086
 **** Fit      -0.000231
 **** Fit      -0.003709
 **** Fit      -0.003226
 **** Fit      -0.002725
 **** Fit      -0.002759
 **** Fit      -0.002961
 **** Fit      -0.002854
 **** Fit      -0.002233
 **** Fit      -0.001245
 **** Fit      -0.000183
 **** Fit       0.000704
 **** Fit      -0.004263
 **** Fit      -0.004510
 **** Fit      -0.004174
 **** Fit      -0.004428
 **** Fit      -0.002714
 **** Fit      -0.000956
 **** Fit       0.000677
 **** Fit      -0.005571
 **** Fit      -0.005011
 **** Fit      -0.002481
 **** Fit      -0.000205
 **** Fit      -0.006002
 **** Fit      -0.002860
 **** Fit      -0.006427
 **** Fit      -0.003175
 **** Fit      -0.009106
 **** Fit      -0.005634
 **** Fit      -0.009139
 **** Fit      -0.010955
 -----------------------------------------------------------------
 Leave Link  602 at Wed Sep 23 22:59:05 2015, MaxMem=    6291456 cpu:      14.9

 Test job not archived.
 1\1\GINC-COMPUTE-2-10\FOpt\RHF\6-31G(d)\C26H28N2O2\SHUNZHOU\23-Sep-201
 5\0\\#HF/6-31G* SCF=tight Test Pop=MK iop(6/33=2) iop(6/42=6) opt\\rem
 ark line goes here\\0,1\C,9.5048374537,4.7440725984,11.0774209689\C,10
 .9039358389,4.1653066573,11.274503832\C,11.9579782972,4.9910768275,10.
 5487071336\O,11.7414780523,6.1380226533,10.2608364579\N,13.1433488879,
 4.3955612523,10.2028320112\C,14.0395655723,5.1457750589,9.298961962\C,
 15.0038768171,6.0327385113,10.0808678752\C,14.7762661562,4.1882796295,
 8.3423855176\C,14.0236863964,2.863358097,8.164774752\N,14.6570230468,2
 .0769126067,7.137818051\C,14.0658535865,0.9915945117,6.4990707045\C,14
 .8529454708,0.2046573186,5.6522123707\C,14.3073323322,-0.8620259883,4.
 9682291875\C,12.9624189161,-1.178442993,5.1001544004\C,12.181742845,-0
 .4042628737,5.9377180594\C,12.7181202873,0.6661318482,6.6380620956\C,1
 3.9544448099,2.235028898,9.5492115158\C,14.3779925625,0.9559796807,9.8
 558844008\C,14.3813535673,0.4847794372,11.1692386879\C,13.9833843809,1
 .3541863295,12.1774091716\C,13.5886693562,2.6499271298,11.8869264157\C
 ,13.5384661309,3.0841495768,10.5741130192\C,14.8142569052,-0.907114327
 3,11.4746178113\C,15.6366396347,-1.1897738191,12.553547602\C,16.043484
 9811,-2.4855618298,12.8469140181\C,15.6238196264,-3.533843918,12.04498
 71094\O,15.9557827443,-4.826702411,12.2340690051\C,16.7744988477,-5.18
 26024023,13.3108812843\C,14.7987181366,-3.2696513596,10.9542971613\C,1
 4.404218344,-1.9806077085,10.6781162171\H,13.3907220459,5.7774738991,8
 .7138516857\H,13.0193530224,3.0988882761,7.8306235606\H,8.7799927964,4
 .1472446318,11.6216419679\H,9.4524850571,5.7638772903,11.4328189344\H,
 9.2246728187,4.7443755803,10.0300862799\H,10.9418492533,3.1340271851,1
 0.9464369129\H,11.1465553273,4.1579746966,12.3327561438\H,15.655593464
 6,6.5751338225,9.4014708233\H,14.4552909021,6.7533719421,10.6739986661
 \H,15.6266601002,5.4361117799,10.740953978\H,14.9013631331,4.673320843
 1,7.3808818091\H,15.7702707892,3.9658950192,8.7231942944\H,15.64777342
 44,2.0114506201,7.2202186862\H,15.8951052558,0.4448843446,5.5276268323
 \H,14.9378082785,-1.4489147914,4.3236155745\H,12.5386129384,-2.0081552
 631,4.5646421446\H,11.1375684202,-0.6326280768,6.0610748908\H,12.08311
 78038,1.2312106384,7.2928358251\H,14.721421671,0.3128053575,9.06867869
 47\H,13.9753592241,1.0209665641,13.1992087412\H,13.3178564137,3.316868
 415,12.6840775905\H,15.991483892,-0.3882397479,13.1764481478\H,16.6865
 753067,-2.651511375,13.6892418081\H,17.7498834083,-4.7126501747,13.240
 0412798\H,16.3179481651,-4.920844672,14.2597206711\H,16.8932595488,-6.
 2543957077,13.258477338\H,14.4749180933,-4.091650201,10.3434640015\H,1
 3.754359461,-1.8028398883,9.8401439186\\Version=AM64L-G03RevD.02\State
 =1-A\HF=-1259.5227355\RMSD=7.448e-09\RMSF=2.484e-06\Thermal=0.\Dipole=
 1.0823153,-1.1581698,0.8546496\PG=C01 [X(C26H28N2O2)]\\@


 NATURE WILL TELL YOU A DIRECT LIE IF SHE CAN.

                                -- CHARLES DARWIN
 Job cpu time:  0 days  6 hours 51 minutes 29.4 seconds.
 File lengths (MBytes):  RWF=    170 Int=      0 D2E=      0 Chk=     24 Scr=      1
 Normal termination of Gaussian 03 at Wed Sep 23 22:59:05 2015.
