 Entering Gaussian System, Link 0=g03
 Initial command:
 /share/apps//g03/l1.exe /state/partition1/mmpbsa.sl9661/Gau-9668.inp -scrdir=/state/partition1/mmpbsa.sl9661/
 Entering Link 1 = /share/apps//g03/l1.exe PID=      9669.
  
 Copyright (c) 1988,1990,1992,1993,1995,1998,2003,2004, Gaussian, Inc.
                  All Rights Reserved.
  
 This is the Gaussian(R) 03 program.  It is based on the
 the Gaussian(R) 98 system (copyright 1998, Gaussian, Inc.),
 the Gaussian(R) 94 system (copyright 1995, Gaussian, Inc.),
 the Gaussian 92(TM) system (copyright 1992, Gaussian, Inc.),
 the Gaussian 90(TM) system (copyright 1990, Gaussian, Inc.),
 the Gaussian 88(TM) system (copyright 1988, Gaussian, Inc.),
 the Gaussian 86(TM) system (copyright 1986, Carnegie Mellon
 University), and the Gaussian 82(TM) system (copyright 1983,
 Carnegie Mellon University). Gaussian is a federally registered
 trademark of Gaussian, Inc.
  
 This software contains proprietary and confidential information,
 including trade secrets, belonging to Gaussian, Inc.
  
 This software is provided under written license and may be
 used, copied, transmitted, or stored only in accord with that
 written license.
  
 The following legend is applicable only to US Government
 contracts under FAR:
  
                    RESTRICTED RIGHTS LEGEND
  
 Use, reproduction and disclosure by the US Government is
 subject to restrictions as set forth in subparagraphs (a)
 and (c) of the Commercial Computer Software - Restricted
 Rights clause in FAR 52.227-19.
  
 Gaussian, Inc.
 340 Quinnipiac St., Bldg. 40, Wallingford CT 06492
  
  
 ---------------------------------------------------------------
 Warning -- This program may not be used in any manner that
 competes with the business of Gaussian, Inc. or will provide
 assistance to any competitor of Gaussian, Inc.  The licensee
 of this program is prohibited from giving any competitor of
 Gaussian, Inc. access to this program.  By using this program,
 the user acknowledges that Gaussian, Inc. is engaged in the
 business of creating and licensing software in the field of
 computational chemistry and represents and warrants to the
 licensee that it is not a competitor of Gaussian, Inc. and that
 it will not use this program in any manner prohibited above.
 ---------------------------------------------------------------
  

 Cite this work as:
 Gaussian 03, Revision D.02,
 M. J. Frisch, G. W. Trucks, H. B. Schlegel, G. E. Scuseria, 
 M. A. Robb, J. R. Cheeseman, J. A. Montgomery, Jr., T. Vreven, 
 K. N. Kudin, J. C. Burant, J. M. Millam, S. S. Iyengar, J. Tomasi, 
 V. Barone, B. Mennucci, M. Cossi, G. Scalmani, N. Rega, 
 G. A. Petersson, H. Nakatsuji, M. Hada, M. Ehara, K. Toyota, 
 R. Fukuda, J. Hasegawa, M. Ishida, T. Nakajima, Y. Honda, O. Kitao, 
 H. Nakai, M. Klene, X. Li, J. E. Knox, H. P. Hratchian, J. B. Cross, 
 V. Bakken, C. Adamo, J. Jaramillo, R. Gomperts, R. E. Stratmann, 
 O. Yazyev, A. J. Austin, R. Cammi, C. Pomelli, J. W. Ochterski, 
 P. Y. Ayala, K. Morokuma, G. A. Voth, P. Salvador, J. J. Dannenberg, 
 V. G. Zakrzewski, S. Dapprich, A. D. Daniels, M. C. Strain, 
 O. Farkas, D. K. Malick, A. D. Rabuck, K. Raghavachari, 
 J. B. Foresman, J. V. Ortiz, Q. Cui, A. G. Baboul, S. Clifford, 
 J. Cioslowski, B. B. Stefanov, G. Liu, A. Liashenko, P. Piskorz, 
 I. Komaromi, R. L. Martin, D. J. Fox, T. Keith, M. A. Al-Laham, 
 C. Y. Peng, A. Nanayakkara, M. Challacombe, P. M. W. Gill, 
 B. Johnson, W. Chen, M. W. Wong, C. Gonzalez, and J. A. Pople, 
 Gaussian, Inc., Wallingford CT, 2004.
 
 ******************************************
 Gaussian 03:  AM64L-G03RevD.02  1-Mar-2006
                23-Sep-2015 
 ******************************************
 %chk=molecule
 ------------------------------------------------------------
 #HF/6-31G* SCF=tight Test Pop=MK iop(6/33=2) iop(6/42=6) opt
 ------------------------------------------------------------
 1/18=20,38=1/1,3;
 2/9=110,17=6,18=5,40=1/2;
 3/5=1,6=6,7=1,11=9,16=1,25=1,30=1/1,2,3;
 4//1;
 5/5=2,32=2,38=5/2;
 6/7=2,8=2,9=2,10=2,15=8,20=1,28=1,33=2,42=6/1,2;
 7//1,2,3,16;
 1/18=20/3(3);
 2/9=110/2;
 6/7=2,8=2,9=2,10=2,15=8,19=2,20=1,28=1,33=2,42=6/1,2;
 99//99;
 2/9=110/2;
 3/5=1,6=6,7=1,11=9,16=1,25=1,30=1/1,2,3;
 4/5=5,16=3/1;
 5/5=2,32=2,38=5/2;
 7//1,2,3,16;
 1/18=20/3(-5);
 2/9=110/2;
 6/7=2,8=2,9=2,10=2,15=8,19=2,20=1,28=1,33=2,42=6/1,2;
 99/9=1/99;
 ---------------------
 remark line goes here
 ---------------------
 Symbolic Z-matrix:
 Charge =  1 Multiplicity = 1
 C                     16.501    8.215     9.585 
 C                     15.624    7.169     8.886 
 C                     14.912    6.24      9.884 
 C                     13.966    5.212     9.215 
 C                     14.734    4.265     8.249 
 C                     14.075    2.886     8.117 
 N                     14.764    2.079     7.112 
 C                     14.162    0.985     6.471 
 C                     12.851    0.543     6.768 
 C                     12.302   -0.565     6.092 
 C                     13.055   -1.241     5.114 
 C                     14.36    -0.808     4.814 
 C                     14.909    0.299     5.49 
 C                     13.999    2.295     9.521 
 C                     14.395    0.97      9.815 
 C                     14.372    0.47      11.136 
 C                     13.962    1.34      12.17 
 C                     13.571    2.663     11.893 
 C                     13.558    3.142     10.562 
 N                     13.17     4.487     10.242 
 C                     12.008    5.05      10.686 
 C                     10.974    4.21      11.441 
 O                     11.715    6.232     10.473 
 C                     14.78    -0.919     11.429 
 C                     14.099   -1.686     12.402 
 C                     14.483   -3.012     12.682 
 C                     15.557   -3.604     11.986 
 C                     15.979   -5.04      12.29 
 C                     13.832   -6.164     11.7 
 C                     13.227   -7.379     10.971 
 C                     13.542   -7.337     9.468 
 C                     15.056   -7.203     9.248 
 C                     15.624   -5.992     10.012 
 C                     16.252   -2.844     11.022 
 C                     15.862   -1.519     10.747 
 H                     13.267    5.759     8.579 
 H                     13.052    3.053     7.773 
 H                     16.994    8.859     8.856 
 H                     15.91     8.853     10.243 
 H                     17.278    7.742     10.186 
 H                     16.245    6.586     8.205 
 H                     14.884    7.678     8.267 
 H                     14.344    6.857     10.581 
 H                     15.652    5.713     10.489 
 H                     14.823    4.742     7.272 
 H                     15.753    4.126     8.613 
 H                     15.708    2.349     6.855 
 H                     12.246    1.03      7.519 
 H                     11.3     -0.897     6.328 
 H                     12.633   -2.092     4.596 
 H                     14.942   -1.324     4.064 
 H                     15.913    0.616     5.245 
 H                     14.726    0.32      9.019 
 H                     13.96     0.999     13.196 
 H                     13.294    3.305     12.716 
 H                     11.209    4.169     12.504 
 H                     10.912    3.195     11.048 
 H                     9.984     4.654     11.341 
 H                     13.264   -1.259     12.939 
 H                     13.943   -3.571     13.434 
 H                     17.058   -5.131     12.159 
 H                     15.797   -5.251     13.345 
 H                     13.636   -6.247     12.77 
 H                     13.338   -5.253     11.36 
 H                     12.147   -7.401     11.124 
 H                     13.614   -8.302     11.405 
 H                     13.166   -8.236     8.977 
 H                     13.026   -6.494     9.006 
 H                     15.56    -8.115     9.572 
 H                     15.27    -7.101     8.183 
 H                     16.706   -5.952     9.878 
 H                     15.221   -5.072     9.586 
 H                     17.088   -3.271     10.487 
 H                     16.413   -0.956     10.006 
 N                     15.296   -6.066     11.46 
 H                     15.684   -6.94      11.783 
 

 GradGradGradGradGradGradGradGradGradGradGradGradGradGradGradGradGradGrad
 Berny optimization.
 Initialization pass.
                           ----------------------------
                           !    Initial Parameters    !
                           ! (Angstroms and Degrees)  !
 --------------------------                            --------------------------
 ! Name  Definition              Value          Derivative Info.                !
 --------------------------------------------------------------------------------
 ! R1    R(1,2)                  1.5336         estimate D2E/DX2                !
 ! R2    R(1,38)                 1.0905         estimate D2E/DX2                !
 ! R3    R(1,39)                 1.0905         estimate D2E/DX2                !
 ! R4    R(1,40)                 1.0903         estimate D2E/DX2                !
 ! R5    R(2,3)                  1.5382         estimate D2E/DX2                !
 ! R6    R(2,41)                 1.0905         estimate D2E/DX2                !
 ! R7    R(2,42)                 1.0908         estimate D2E/DX2                !
 ! R8    R(3,4)                  1.549          estimate D2E/DX2                !
 ! R9    R(3,43)                 1.0905         estimate D2E/DX2                !
 ! R10   R(3,44)                 1.0915         estimate D2E/DX2                !
 ! R11   R(4,5)                  1.5556         estimate D2E/DX2                !
 ! R12   R(4,20)                 1.4879         estimate D2E/DX2                !
 ! R13   R(4,36)                 1.0919         estimate D2E/DX2                !
 ! R14   R(5,6)                  1.5341         estimate D2E/DX2                !
 ! R15   R(5,45)                 1.0909         estimate D2E/DX2                !
 ! R16   R(5,46)                 1.091          estimate D2E/DX2                !
 ! R17   R(6,7)                  1.4615         estimate D2E/DX2                !
 ! R18   R(6,14)                 1.5252         estimate D2E/DX2                !
 ! R19   R(6,37)                 1.0921         estimate D2E/DX2                !
 ! R20   R(7,8)                  1.4036         estimate D2E/DX2                !
 ! R21   R(7,47)                 1.0149         estimate D2E/DX2                !
 ! R22   R(8,9)                  1.415          estimate D2E/DX2                !
 ! R23   R(8,13)                 1.411          estimate D2E/DX2                !
 ! R24   R(9,10)                 1.4093         estimate D2E/DX2                !
 ! R25   R(9,48)                 1.0804         estimate D2E/DX2                !
 ! R26   R(10,11)                1.4073         estimate D2E/DX2                !
 ! R27   R(10,49)                1.0816         estimate D2E/DX2                !
 ! R28   R(11,12)                1.4073         estimate D2E/DX2                !
 ! R29   R(11,50)                1.0819         estimate D2E/DX2                !
 ! R30   R(12,13)                1.4085         estimate D2E/DX2                !
 ! R31   R(12,51)                1.0805         estimate D2E/DX2                !
 ! R32   R(13,52)                1.081          estimate D2E/DX2                !
 ! R33   R(14,15)                1.4138         estimate D2E/DX2                !
 ! R34   R(14,19)                1.4126         estimate D2E/DX2                !
 ! R35   R(15,16)                1.4126         estimate D2E/DX2                !
 ! R36   R(15,53)                1.0797         estimate D2E/DX2                !
 ! R37   R(16,17)                1.4121         estimate D2E/DX2                !
 ! R38   R(16,24)                1.477          estimate D2E/DX2                !
 ! R39   R(17,18)                1.4071         estimate D2E/DX2                !
 ! R40   R(17,54)                1.0812         estimate D2E/DX2                !
 ! R41   R(18,19)                1.4146         estimate D2E/DX2                !
 ! R42   R(18,55)                1.0799         estimate D2E/DX2                !
 ! R43   R(19,20)                1.436          estimate D2E/DX2                !
 ! R44   R(20,21)                1.3654         estimate D2E/DX2                !
 ! R45   R(21,22)                1.5313         estimate D2E/DX2                !
 ! R46   R(21,23)                1.2363         estimate D2E/DX2                !
 ! R47   R(22,56)                1.0894         estimate D2E/DX2                !
 ! R48   R(22,57)                1.0902         estimate D2E/DX2                !
 ! R49   R(22,58)                1.0896         estimate D2E/DX2                !
 ! R50   R(24,25)                1.4138         estimate D2E/DX2                !
 ! R51   R(24,35)                1.4127         estimate D2E/DX2                !
 ! R52   R(25,26)                1.4086         estimate D2E/DX2                !
 ! R53   R(25,59)                1.0807         estimate D2E/DX2                !
 ! R54   R(26,27)                1.4101         estimate D2E/DX2                !
 ! R55   R(26,60)                1.0815         estimate D2E/DX2                !
 ! R56   R(27,28)                1.5273         estimate D2E/DX2                !
 ! R57   R(27,34)                1.4106         estimate D2E/DX2                !
 ! R58   R(28,61)                1.0907         estimate D2E/DX2                !
 ! R59   R(28,62)                1.0912         estimate D2E/DX2                !
 ! R60   R(28,75)                1.486          estimate D2E/DX2                !
 ! R61   R(29,30)                1.5407         estimate D2E/DX2                !
 ! R62   R(29,63)                1.091          estimate D2E/DX2                !
 ! R63   R(29,64)                1.0907         estimate D2E/DX2                !
 ! R64   R(29,75)                1.4868         estimate D2E/DX2                !
 ! R65   R(30,31)                1.5362         estimate D2E/DX2                !
 ! R66   R(30,65)                1.091          estimate D2E/DX2                !
 ! R67   R(30,66)                1.0909         estimate D2E/DX2                !
 ! R68   R(31,32)                1.5358         estimate D2E/DX2                !
 ! R69   R(31,67)                1.0912         estimate D2E/DX2                !
 ! R70   R(31,68)                1.091          estimate D2E/DX2                !
 ! R71   R(32,33)                1.5404         estimate D2E/DX2                !
 ! R72   R(32,69)                1.0912         estimate D2E/DX2                !
 ! R73   R(32,70)                1.0911         estimate D2E/DX2                !
 ! R74   R(33,71)                1.091          estimate D2E/DX2                !
 ! R75   R(33,72)                1.091          estimate D2E/DX2                !
 ! R76   R(33,75)                1.4865         estimate D2E/DX2                !
 ! R77   R(34,35)                1.4083         estimate D2E/DX2                !
 ! R78   R(34,73)                1.0805         estimate D2E/DX2                !
 ! R79   R(35,74)                1.0815         estimate D2E/DX2                !
 ! R80   R(75,76)                1.0093         estimate D2E/DX2                !
 ! A1    A(2,1,38)             110.893          estimate D2E/DX2                !
 ! A2    A(2,1,39)             111.3541         estimate D2E/DX2                !
 ! A3    A(2,1,40)             111.2786         estimate D2E/DX2                !
 ! A4    A(38,1,39)            107.6292         estimate D2E/DX2                !
 ! A5    A(38,1,40)            107.6091         estimate D2E/DX2                !
 ! A6    A(39,1,40)            107.9043         estimate D2E/DX2                !
 ! A7    A(1,2,3)              112.3907         estimate D2E/DX2                !
 ! A8    A(1,2,41)             108.8815         estimate D2E/DX2                !
 ! A9    A(1,2,42)             109.1678         estimate D2E/DX2                !
 ! A10   A(3,2,41)             110.235          estimate D2E/DX2                !
 ! A11   A(3,2,42)             109.6329         estimate D2E/DX2                !
 ! A12   A(41,2,42)            106.344          estimate D2E/DX2                !
 ! A13   A(2,3,4)              113.785          estimate D2E/DX2                !
 ! A14   A(2,3,43)             108.3057         estimate D2E/DX2                !
 ! A15   A(2,3,44)             109.7196         estimate D2E/DX2                !
 ! A16   A(4,3,43)             109.4789         estimate D2E/DX2                !
 ! A17   A(4,3,44)             109.4522         estimate D2E/DX2                !
 ! A18   A(43,3,44)            105.7858         estimate D2E/DX2                !
 ! A19   A(3,4,5)              111.7598         estimate D2E/DX2                !
 ! A20   A(3,4,20)             110.6091         estimate D2E/DX2                !
 ! A21   A(3,4,36)             108.063          estimate D2E/DX2                !
 ! A22   A(5,4,20)             113.3353         estimate D2E/DX2                !
 ! A23   A(5,4,36)             105.0295         estimate D2E/DX2                !
 ! A24   A(20,4,36)            107.6768         estimate D2E/DX2                !
 ! A25   A(4,5,6)              112.867          estimate D2E/DX2                !
 ! A26   A(4,5,45)             109.2843         estimate D2E/DX2                !
 ! A27   A(4,5,46)             109.3609         estimate D2E/DX2                !
 ! A28   A(6,5,45)             110.5518         estimate D2E/DX2                !
 ! A29   A(6,5,46)             108.3863         estimate D2E/DX2                !
 ! A30   A(45,5,46)            106.1608         estimate D2E/DX2                !
 ! A31   A(5,6,7)              110.6715         estimate D2E/DX2                !
 ! A32   A(5,6,14)             106.889          estimate D2E/DX2                !
 ! A33   A(5,6,37)             106.9797         estimate D2E/DX2                !
 ! A34   A(7,6,14)             116.2655         estimate D2E/DX2                !
 ! A35   A(7,6,37)             108.0248         estimate D2E/DX2                !
 ! A36   A(14,6,37)            107.6093         estimate D2E/DX2                !
 ! A37   A(6,7,8)              122.8344         estimate D2E/DX2                !
 ! A38   A(6,7,47)             117.7567         estimate D2E/DX2                !
 ! A39   A(8,7,47)             119.3818         estimate D2E/DX2                !
 ! A40   A(7,8,9)              123.0228         estimate D2E/DX2                !
 ! A41   A(7,8,13)             117.9939         estimate D2E/DX2                !
 ! A42   A(9,8,13)             118.983          estimate D2E/DX2                !
 ! A43   A(8,9,10)             120.3865         estimate D2E/DX2                !
 ! A44   A(8,9,48)             121.5959         estimate D2E/DX2                !
 ! A45   A(10,9,48)            118.0146         estimate D2E/DX2                !
 ! A46   A(9,10,11)            120.1707         estimate D2E/DX2                !
 ! A47   A(9,10,49)            119.838          estimate D2E/DX2                !
 ! A48   A(11,10,49)           119.9912         estimate D2E/DX2                !
 ! A49   A(10,11,12)           119.7701         estimate D2E/DX2                !
 ! A50   A(10,11,50)           120.122          estimate D2E/DX2                !
 ! A51   A(12,11,50)           120.1077         estimate D2E/DX2                !
 ! A52   A(11,12,13)           120.0631         estimate D2E/DX2                !
 ! A53   A(11,12,51)           120.0341         estimate D2E/DX2                !
 ! A54   A(13,12,51)           119.9027         estimate D2E/DX2                !
 ! A55   A(8,13,12)            120.6265         estimate D2E/DX2                !
 ! A56   A(8,13,52)            120.4446         estimate D2E/DX2                !
 ! A57   A(12,13,52)           118.9289         estimate D2E/DX2                !
 ! A58   A(6,14,15)            122.7252         estimate D2E/DX2                !
 ! A59   A(6,14,19)            117.4888         estimate D2E/DX2                !
 ! A60   A(15,14,19)           119.7435         estimate D2E/DX2                !
 ! A61   A(14,15,16)           121.4401         estimate D2E/DX2                !
 ! A62   A(14,15,53)           119.7869         estimate D2E/DX2                !
 ! A63   A(16,15,53)           118.7728         estimate D2E/DX2                !
 ! A64   A(15,16,17)           118.1241         estimate D2E/DX2                !
 ! A65   A(15,16,24)           120.9208         estimate D2E/DX2                !
 ! A66   A(17,16,24)           120.9515         estimate D2E/DX2                !
 ! A67   A(16,17,18)           121.0506         estimate D2E/DX2                !
 ! A68   A(16,17,54)           120.071          estimate D2E/DX2                !
 ! A69   A(18,17,54)           118.871          estimate D2E/DX2                !
 ! A70   A(17,18,19)           120.4071         estimate D2E/DX2                !
 ! A71   A(17,18,55)           118.699          estimate D2E/DX2                !
 ! A72   A(19,18,55)           120.8898         estimate D2E/DX2                !
 ! A73   A(14,19,18)           119.1738         estimate D2E/DX2                !
 ! A74   A(14,19,20)           118.7989         estimate D2E/DX2                !
 ! A75   A(18,19,20)           121.9591         estimate D2E/DX2                !
 ! A76   A(4,20,19)            117.7523         estimate D2E/DX2                !
 ! A77   A(4,20,21)            118.6074         estimate D2E/DX2                !
 ! A78   A(19,20,21)           122.9357         estimate D2E/DX2                !
 ! A79   A(20,21,22)           120.584          estimate D2E/DX2                !
 ! A80   A(20,21,23)           122.6771         estimate D2E/DX2                !
 ! A81   A(22,21,23)           116.7051         estimate D2E/DX2                !
 ! A82   A(21,22,56)           110.8595         estimate D2E/DX2                !
 ! A83   A(21,22,57)           111.8015         estimate D2E/DX2                !
 ! A84   A(21,22,58)           110.1663         estimate D2E/DX2                !
 ! A85   A(56,22,57)           109.2061         estimate D2E/DX2                !
 ! A86   A(56,22,58)           107.5101         estimate D2E/DX2                !
 ! A87   A(57,22,58)           107.1351         estimate D2E/DX2                !
 ! A88   A(16,24,25)           120.9072         estimate D2E/DX2                !
 ! A89   A(16,24,35)           121.01           estimate D2E/DX2                !
 ! A90   A(25,24,35)           118.0828         estimate D2E/DX2                !
 ! A91   A(24,25,26)           121.0776         estimate D2E/DX2                !
 ! A92   A(24,25,59)           119.9864         estimate D2E/DX2                !
 ! A93   A(26,25,59)           118.9342         estimate D2E/DX2                !
 ! A94   A(25,26,27)           120.3138         estimate D2E/DX2                !
 ! A95   A(25,26,60)           119.2539         estimate D2E/DX2                !
 ! A96   A(27,26,60)           120.432          estimate D2E/DX2                !
 ! A97   A(26,27,28)           120.4604         estimate D2E/DX2                !
 ! A98   A(26,27,34)           119.1022         estimate D2E/DX2                !
 ! A99   A(28,27,34)           120.4277         estimate D2E/DX2                !
 ! A100  A(27,28,61)           109.1398         estimate D2E/DX2                !
 ! A101  A(27,28,62)           109.1579         estimate D2E/DX2                !
 ! A102  A(27,28,75)           114.2686         estimate D2E/DX2                !
 ! A103  A(61,28,62)           105.3662         estimate D2E/DX2                !
 ! A104  A(61,28,75)           109.269          estimate D2E/DX2                !
 ! A105  A(62,28,75)           109.2606         estimate D2E/DX2                !
 ! A106  A(30,29,63)           109.4831         estimate D2E/DX2                !
 ! A107  A(30,29,64)           109.4717         estimate D2E/DX2                !
 ! A108  A(30,29,75)           111.2396         estimate D2E/DX2                !
 ! A109  A(63,29,64)           106.7334         estimate D2E/DX2                !
 ! A110  A(63,29,75)           109.8916         estimate D2E/DX2                !
 ! A111  A(64,29,75)           109.9145         estimate D2E/DX2                !
 ! A112  A(29,30,31)           111.1527         estimate D2E/DX2                !
 ! A113  A(29,30,65)           109.7715         estimate D2E/DX2                !
 ! A114  A(29,30,66)           109.858          estimate D2E/DX2                !
 ! A115  A(31,30,65)           109.9216         estimate D2E/DX2                !
 ! A116  A(31,30,66)           109.8539         estimate D2E/DX2                !
 ! A117  A(65,30,66)           106.1601         estimate D2E/DX2                !
 ! A118  A(30,31,32)           110.1623         estimate D2E/DX2                !
 ! A119  A(30,31,67)           110.3077         estimate D2E/DX2                !
 ! A120  A(30,31,68)           109.7819         estimate D2E/DX2                !
 ! A121  A(32,31,67)           110.3118         estimate D2E/DX2                !
 ! A122  A(32,31,68)           109.7653         estimate D2E/DX2                !
 ! A123  A(67,31,68)           106.4437         estimate D2E/DX2                !
 ! A124  A(31,32,33)           111.1651         estimate D2E/DX2                !
 ! A125  A(31,32,69)           109.8691         estimate D2E/DX2                !
 ! A126  A(31,32,70)           109.9589         estimate D2E/DX2                !
 ! A127  A(33,32,69)           109.8449         estimate D2E/DX2                !
 ! A128  A(33,32,70)           109.7738         estimate D2E/DX2                !
 ! A129  A(69,32,70)           106.1031         estimate D2E/DX2                !
 ! A130  A(32,33,71)           109.4874         estimate D2E/DX2                !
 ! A131  A(32,33,72)           109.4552         estimate D2E/DX2                !
 ! A132  A(32,33,75)           111.2614         estimate D2E/DX2                !
 ! A133  A(71,33,72)           106.7061         estimate D2E/DX2                !
 ! A134  A(71,33,75)           109.8947         estimate D2E/DX2                !
 ! A135  A(72,33,75)           109.9269         estimate D2E/DX2                !
 ! A136  A(27,34,35)           120.2579         estimate D2E/DX2                !
 ! A137  A(27,34,73)           120.4415         estimate D2E/DX2                !
 ! A138  A(35,34,73)           119.3006         estimate D2E/DX2                !
 ! A139  A(24,35,34)           121.1586         estimate D2E/DX2                !
 ! A140  A(24,35,74)           119.9913         estimate D2E/DX2                !
 ! A141  A(34,35,74)           118.8473         estimate D2E/DX2                !
 ! A142  A(28,75,29)           114.0756         estimate D2E/DX2                !
 ! A143  A(28,75,33)           114.0979         estimate D2E/DX2                !
 ! A144  A(28,75,76)           104.0311         estimate D2E/DX2                !
 ! A145  A(29,75,33)           112.1968         estimate D2E/DX2                !
 ! A146  A(29,75,76)           105.6518         estimate D2E/DX2                !
 ! A147  A(33,75,76)           105.6646         estimate D2E/DX2                !
 ! D1    D(38,1,2,3)           179.9579         estimate D2E/DX2                !
 ! D2    D(38,1,2,41)           57.5291         estimate D2E/DX2                !
 ! D3    D(38,1,2,42)          -58.1767         estimate D2E/DX2                !
 ! D4    D(39,1,2,3)           -60.22           estimate D2E/DX2                !
 ! D5    D(39,1,2,41)          177.3512         estimate D2E/DX2                !
 ! D6    D(39,1,2,42)           61.6454         estimate D2E/DX2                !
 ! D7    D(40,1,2,3)            60.2112         estimate D2E/DX2                !
 ! D8    D(40,1,2,41)          -62.2176         estimate D2E/DX2                !
 ! D9    D(40,1,2,42)         -177.9234         estimate D2E/DX2                !
 ! D10   D(1,2,3,4)            177.3367         estimate D2E/DX2                !
 ! D11   D(1,2,3,43)            55.3553         estimate D2E/DX2                !
 ! D12   D(1,2,3,44)           -59.6672         estimate D2E/DX2                !
 ! D13   D(41,2,3,4)           -61.0027         estimate D2E/DX2                !
 ! D14   D(41,2,3,43)          177.016          estimate D2E/DX2                !
 ! D15   D(41,2,3,44)           61.9934         estimate D2E/DX2                !
 ! D16   D(42,2,3,4)            55.7362         estimate D2E/DX2                !
 ! D17   D(42,2,3,43)          -66.2452         estimate D2E/DX2                !
 ! D18   D(42,2,3,44)          178.7322         estimate D2E/DX2                !
 ! D19   D(2,3,4,5)             60.9032         estimate D2E/DX2                !
 ! D20   D(2,3,4,20)          -171.8127         estimate D2E/DX2                !
 ! D21   D(2,3,4,36)           -54.1755         estimate D2E/DX2                !
 ! D22   D(43,3,4,5)          -177.7666         estimate D2E/DX2                !
 ! D23   D(43,3,4,20)          -50.4825         estimate D2E/DX2                !
 ! D24   D(43,3,4,36)           67.1546         estimate D2E/DX2                !
 ! D25   D(44,3,4,5)           -62.239          estimate D2E/DX2                !
 ! D26   D(44,3,4,20)           65.0451         estimate D2E/DX2                !
 ! D27   D(44,3,4,36)         -177.3177         estimate D2E/DX2                !
 ! D28   D(3,4,5,6)            151.5002         estimate D2E/DX2                !
 ! D29   D(3,4,5,45)           -85.0501         estimate D2E/DX2                !
 ! D30   D(3,4,5,46)            30.7671         estimate D2E/DX2                !
 ! D31   D(20,4,5,6)            25.7004         estimate D2E/DX2                !
 ! D32   D(20,4,5,45)          149.1501         estimate D2E/DX2                !
 ! D33   D(20,4,5,46)          -95.0326         estimate D2E/DX2                !
 ! D34   D(36,4,5,6)           -91.5732         estimate D2E/DX2                !
 ! D35   D(36,4,5,45)           31.8765         estimate D2E/DX2                !
 ! D36   D(36,4,5,46)          147.6937         estimate D2E/DX2                !
 ! D37   D(3,4,20,19)         -103.7198         estimate D2E/DX2                !
 ! D38   D(3,4,20,21)           85.6113         estimate D2E/DX2                !
 ! D39   D(5,4,20,19)           22.6914         estimate D2E/DX2                !
 ! D40   D(5,4,20,21)         -147.9775         estimate D2E/DX2                !
 ! D41   D(36,4,20,19)         138.4065         estimate D2E/DX2                !
 ! D42   D(36,4,20,21)         -32.2625         estimate D2E/DX2                !
 ! D43   D(4,5,6,7)            174.9565         estimate D2E/DX2                !
 ! D44   D(4,5,6,14)           -57.5368         estimate D2E/DX2                !
 ! D45   D(4,5,6,37)            57.5048         estimate D2E/DX2                !
 ! D46   D(45,5,6,7)            52.2114         estimate D2E/DX2                !
 ! D47   D(45,5,6,14)          179.7181         estimate D2E/DX2                !
 ! D48   D(45,5,6,37)          -65.2403         estimate D2E/DX2                !
 ! D49   D(46,5,6,7)           -63.7562         estimate D2E/DX2                !
 ! D50   D(46,5,6,14)           63.7505         estimate D2E/DX2                !
 ! D51   D(46,5,6,37)          178.7922         estimate D2E/DX2                !
 ! D52   D(5,6,7,8)           -158.7649         estimate D2E/DX2                !
 ! D53   D(5,6,7,47)            19.3254         estimate D2E/DX2                !
 ! D54   D(14,6,7,8)            79.0641         estimate D2E/DX2                !
 ! D55   D(14,6,7,47)         -102.8456         estimate D2E/DX2                !
 ! D56   D(37,6,7,8)           -41.9564         estimate D2E/DX2                !
 ! D57   D(37,6,7,47)          136.1339         estimate D2E/DX2                !
 ! D58   D(5,6,14,15)         -132.8229         estimate D2E/DX2                !
 ! D59   D(5,6,14,19)           44.7938         estimate D2E/DX2                !
 ! D60   D(7,6,14,15)           -8.6824         estimate D2E/DX2                !
 ! D61   D(7,6,14,19)          168.9343         estimate D2E/DX2                !
 ! D62   D(37,6,14,15)         112.5592         estimate D2E/DX2                !
 ! D63   D(37,6,14,19)         -69.8242         estimate D2E/DX2                !
 ! D64   D(6,7,8,9)             -1.8925         estimate D2E/DX2                !
 ! D65   D(6,7,8,13)           178.3155         estimate D2E/DX2                !
 ! D66   D(47,7,8,9)          -179.9531         estimate D2E/DX2                !
 ! D67   D(47,7,8,13)            0.2549         estimate D2E/DX2                !
 ! D68   D(7,8,9,10)          -179.841          estimate D2E/DX2                !
 ! D69   D(7,8,9,48)            -0.485          estimate D2E/DX2                !
 ! D70   D(13,8,9,10)           -0.051          estimate D2E/DX2                !
 ! D71   D(13,8,9,48)          179.305          estimate D2E/DX2                !
 ! D72   D(7,8,13,12)          179.8805         estimate D2E/DX2                !
 ! D73   D(7,8,13,52)           -0.1537         estimate D2E/DX2                !
 ! D74   D(9,8,13,12)            0.0799         estimate D2E/DX2                !
 ! D75   D(9,8,13,52)         -179.9543         estimate D2E/DX2                !
 ! D76   D(8,9,10,11)           -0.0331         estimate D2E/DX2                !
 ! D77   D(8,9,10,49)          179.8302         estimate D2E/DX2                !
 ! D78   D(48,9,10,11)        -179.4117         estimate D2E/DX2                !
 ! D79   D(48,9,10,49)           0.4516         estimate D2E/DX2                !
 ! D80   D(9,10,11,12)           0.0888         estimate D2E/DX2                !
 ! D81   D(9,10,11,50)         179.9559         estimate D2E/DX2                !
 ! D82   D(49,10,11,12)       -179.7743         estimate D2E/DX2                !
 ! D83   D(49,10,11,50)          0.0928         estimate D2E/DX2                !
 ! D84   D(10,11,12,13)         -0.06           estimate D2E/DX2                !
 ! D85   D(10,11,12,51)        179.9886         estimate D2E/DX2                !
 ! D86   D(50,11,12,13)       -179.9271         estimate D2E/DX2                !
 ! D87   D(50,11,12,51)          0.1214         estimate D2E/DX2                !
 ! D88   D(11,12,13,8)          -0.0249         estimate D2E/DX2                !
 ! D89   D(11,12,13,52)       -179.9912         estimate D2E/DX2                !
 ! D90   D(51,12,13,8)         179.9266         estimate D2E/DX2                !
 ! D91   D(51,12,13,52)         -0.0397         estimate D2E/DX2                !
 ! D92   D(6,14,15,16)         177.0052         estimate D2E/DX2                !
 ! D93   D(6,14,15,53)          -2.8364         estimate D2E/DX2                !
 ! D94   D(19,14,15,16)         -0.5597         estimate D2E/DX2                !
 ! D95   D(19,14,15,53)        179.5987         estimate D2E/DX2                !
 ! D96   D(6,14,19,18)        -175.2048         estimate D2E/DX2                !
 ! D97   D(6,14,19,20)           1.8525         estimate D2E/DX2                !
 ! D98   D(15,14,19,18)          2.486          estimate D2E/DX2                !
 ! D99   D(15,14,19,20)        179.5433         estimate D2E/DX2                !
 ! D100  D(14,15,16,17)         -1.0766         estimate D2E/DX2                !
 ! D101  D(14,15,16,24)        179.6046         estimate D2E/DX2                !
 ! D102  D(53,15,16,17)        178.7666         estimate D2E/DX2                !
 ! D103  D(53,15,16,24)         -0.5522         estimate D2E/DX2                !
 ! D104  D(15,16,17,18)          0.7768         estimate D2E/DX2                !
 ! D105  D(15,16,17,54)       -178.2264         estimate D2E/DX2                !
 ! D106  D(24,16,17,18)       -179.9046         estimate D2E/DX2                !
 ! D107  D(24,16,17,54)          1.0922         estimate D2E/DX2                !
 ! D108  D(15,16,24,25)       -141.9339         estimate D2E/DX2                !
 ! D109  D(15,16,24,35)         38.1379         estimate D2E/DX2                !
 ! D110  D(17,16,24,25)         38.7666         estimate D2E/DX2                !
 ! D111  D(17,16,24,35)       -141.1616         estimate D2E/DX2                !
 ! D112  D(16,17,18,19)          1.1606         estimate D2E/DX2                !
 ! D113  D(16,17,18,55)       -178.1078         estimate D2E/DX2                !
 ! D114  D(54,17,18,19)       -179.8245         estimate D2E/DX2                !
 ! D115  D(54,17,18,55)          0.9071         estimate D2E/DX2                !
 ! D116  D(17,18,19,14)         -2.7946         estimate D2E/DX2                !
 ! D117  D(17,18,19,20)       -179.7551         estimate D2E/DX2                !
 ! D118  D(55,18,19,14)        176.4577         estimate D2E/DX2                !
 ! D119  D(55,18,19,20)         -0.5028         estimate D2E/DX2                !
 ! D120  D(14,19,20,4)         -38.3946         estimate D2E/DX2                !
 ! D121  D(14,19,20,21)        131.8407         estimate D2E/DX2                !
 ! D122  D(18,19,20,4)         138.5769         estimate D2E/DX2                !
 ! D123  D(18,19,20,21)        -51.1878         estimate D2E/DX2                !
 ! D124  D(4,20,21,22)         163.6507         estimate D2E/DX2                !
 ! D125  D(4,20,21,23)         -14.1648         estimate D2E/DX2                !
 ! D126  D(19,20,21,22)         -6.5054         estimate D2E/DX2                !
 ! D127  D(19,20,21,23)        175.6791         estimate D2E/DX2                !
 ! D128  D(20,21,22,56)         85.51           estimate D2E/DX2                !
 ! D129  D(20,21,22,57)        -36.6025         estimate D2E/DX2                !
 ! D130  D(20,21,22,58)       -155.6117         estimate D2E/DX2                !
 ! D131  D(23,21,22,56)        -96.5482         estimate D2E/DX2                !
 ! D132  D(23,21,22,57)        141.3393         estimate D2E/DX2                !
 ! D133  D(23,21,22,58)         22.33           estimate D2E/DX2                !
 ! D134  D(16,24,25,26)        179.8455         estimate D2E/DX2                !
 ! D135  D(16,24,25,59)          0.3463         estimate D2E/DX2                !
 ! D136  D(35,24,25,26)         -0.2242         estimate D2E/DX2                !
 ! D137  D(35,24,25,59)       -179.7234         estimate D2E/DX2                !
 ! D138  D(16,24,35,34)       -179.8734         estimate D2E/DX2                !
 ! D139  D(16,24,35,74)          0.7429         estimate D2E/DX2                !
 ! D140  D(25,24,35,34)          0.1964         estimate D2E/DX2                !
 ! D141  D(25,24,35,74)       -179.1873         estimate D2E/DX2                !
 ! D142  D(24,25,26,27)         -0.3459         estimate D2E/DX2                !
 ! D143  D(24,25,26,60)        179.8448         estimate D2E/DX2                !
 ! D144  D(59,25,26,27)        179.1584         estimate D2E/DX2                !
 ! D145  D(59,25,26,60)         -0.6508         estimate D2E/DX2                !
 ! D146  D(25,26,27,28)        179.8067         estimate D2E/DX2                !
 ! D147  D(25,26,27,34)          0.9373         estimate D2E/DX2                !
 ! D148  D(60,26,27,28)         -0.3863         estimate D2E/DX2                !
 ! D149  D(60,26,27,34)       -179.2557         estimate D2E/DX2                !
 ! D150  D(26,27,28,61)       -146.8201         estimate D2E/DX2                !
 ! D151  D(26,27,28,62)        -32.1426         estimate D2E/DX2                !
 ! D152  D(26,27,28,75)         90.52           estimate D2E/DX2                !
 ! D153  D(34,27,28,61)         32.0343         estimate D2E/DX2                !
 ! D154  D(34,27,28,62)        146.7118         estimate D2E/DX2                !
 ! D155  D(34,27,28,75)        -90.6256         estimate D2E/DX2                !
 ! D156  D(26,27,34,35)         -0.9644         estimate D2E/DX2                !
 ! D157  D(26,27,34,73)        179.046          estimate D2E/DX2                !
 ! D158  D(28,27,34,35)       -179.8342         estimate D2E/DX2                !
 ! D159  D(28,27,34,73)          0.1762         estimate D2E/DX2                !
 ! D160  D(27,28,75,29)        -65.4636         estimate D2E/DX2                !
 ! D161  D(27,28,75,33)         65.315          estimate D2E/DX2                !
 ! D162  D(27,28,75,76)        179.9387         estimate D2E/DX2                !
 ! D163  D(61,28,75,29)        171.9468         estimate D2E/DX2                !
 ! D164  D(61,28,75,33)        -57.2745         estimate D2E/DX2                !
 ! D165  D(61,28,75,76)         57.3491         estimate D2E/DX2                !
 ! D166  D(62,28,75,29)         57.1431         estimate D2E/DX2                !
 ! D167  D(62,28,75,33)       -172.0783         estimate D2E/DX2                !
 ! D168  D(62,28,75,76)        -57.4546         estimate D2E/DX2                !
 ! D169  D(63,29,30,31)       -177.1486         estimate D2E/DX2                !
 ! D170  D(63,29,30,65)         61.0267         estimate D2E/DX2                !
 ! D171  D(63,29,30,66)        -55.3506         estimate D2E/DX2                !
 ! D172  D(64,29,30,31)         66.1706         estimate D2E/DX2                !
 ! D173  D(64,29,30,65)        -55.6541         estimate D2E/DX2                !
 ! D174  D(64,29,30,66)       -172.0314         estimate D2E/DX2                !
 ! D175  D(75,29,30,31)        -55.4996         estimate D2E/DX2                !
 ! D176  D(75,29,30,65)       -177.3242         estimate D2E/DX2                !
 ! D177  D(75,29,30,66)         66.2984         estimate D2E/DX2                !
 ! D178  D(30,29,75,28)       -171.4401         estimate D2E/DX2                !
 ! D179  D(30,29,75,33)         56.8542         estimate D2E/DX2                !
 ! D180  D(30,29,75,76)        -57.8017         estimate D2E/DX2                !
 ! D181  D(63,29,75,28)        -50.0292         estimate D2E/DX2                !
 ! D182  D(63,29,75,33)        178.2651         estimate D2E/DX2                !
 ! D183  D(63,29,75,76)         63.6092         estimate D2E/DX2                !
 ! D184  D(64,29,75,28)         67.148          estimate D2E/DX2                !
 ! D185  D(64,29,75,33)        -64.5577         estimate D2E/DX2                !
 ! D186  D(64,29,75,76)       -179.2136         estimate D2E/DX2                !
 ! D187  D(29,30,31,32)         54.1666         estimate D2E/DX2                !
 ! D188  D(29,30,31,67)        176.1841         estimate D2E/DX2                !
 ! D189  D(29,30,31,68)        -66.8242         estimate D2E/DX2                !
 ! D190  D(65,30,31,32)        175.9038         estimate D2E/DX2                !
 ! D191  D(65,30,31,67)        -62.0787         estimate D2E/DX2                !
 ! D192  D(65,30,31,68)         54.913          estimate D2E/DX2                !
 ! D193  D(66,30,31,32)        -67.6338         estimate D2E/DX2                !
 ! D194  D(66,30,31,67)         54.3837         estimate D2E/DX2                !
 ! D195  D(66,30,31,68)        171.3755         estimate D2E/DX2                !
 ! D196  D(30,31,32,33)        -54.1577         estimate D2E/DX2                !
 ! D197  D(30,31,32,69)         67.6447         estimate D2E/DX2                !
 ! D198  D(30,31,32,70)       -175.9314         estimate D2E/DX2                !
 ! D199  D(67,31,32,33)       -176.1728         estimate D2E/DX2                !
 ! D200  D(67,31,32,69)        -54.3704         estimate D2E/DX2                !
 ! D201  D(67,31,32,70)         62.0535         estimate D2E/DX2                !
 ! D202  D(68,31,32,33)         66.8429         estimate D2E/DX2                !
 ! D203  D(68,31,32,69)       -171.3546         estimate D2E/DX2                !
 ! D204  D(68,31,32,70)        -54.9307         estimate D2E/DX2                !
 ! D205  D(31,32,33,71)        177.1634         estimate D2E/DX2                !
 ! D206  D(31,32,33,72)        -66.1957         estimate D2E/DX2                !
 ! D207  D(31,32,33,75)         55.4932         estimate D2E/DX2                !
 ! D208  D(69,32,33,71)         55.3469         estimate D2E/DX2                !
 ! D209  D(69,32,33,72)        171.9878         estimate D2E/DX2                !
 ! D210  D(69,32,33,75)        -66.3233         estimate D2E/DX2                !
 ! D211  D(70,32,33,71)        -60.9551         estimate D2E/DX2                !
 ! D212  D(70,32,33,72)         55.6858         estimate D2E/DX2                !
 ! D213  D(70,32,33,75)        177.3747         estimate D2E/DX2                !
 ! D214  D(32,33,75,28)        171.4549         estimate D2E/DX2                !
 ! D215  D(32,33,75,29)        -56.8506         estimate D2E/DX2                !
 ! D216  D(32,33,75,76)         57.7975         estimate D2E/DX2                !
 ! D217  D(71,33,75,28)         50.0221         estimate D2E/DX2                !
 ! D218  D(71,33,75,29)       -178.2834         estimate D2E/DX2                !
 ! D219  D(71,33,75,76)        -63.6353         estimate D2E/DX2                !
 ! D220  D(72,33,75,28)        -67.1311         estimate D2E/DX2                !
 ! D221  D(72,33,75,29)         64.5634         estimate D2E/DX2                !
 ! D222  D(72,33,75,76)        179.2115         estimate D2E/DX2                !
 ! D223  D(27,34,35,24)          0.4014         estimate D2E/DX2                !
 ! D224  D(27,34,35,74)        179.792          estimate D2E/DX2                !
 ! D225  D(73,34,35,24)       -179.6089         estimate D2E/DX2                !
 ! D226  D(73,34,35,74)         -0.2182         estimate D2E/DX2                !
 --------------------------------------------------------------------------------
 Trust Radius=3.00D-01 FncErr=1.00D-07 GrdErr=1.00D-07
 Number of steps in this run= 456 maximum allowed number of steps= 456.
 GradGradGradGradGradGradGradGradGradGradGradGradGradGradGradGradGradGrad

 Stoichiometry    C32H40N3O(1+)
 Framework group  C1[X(C32H40N3O)]
 Deg. of freedom   222
 Full point group                 C1
 Largest Abelian subgroup         C1      NOp   1
 Largest concise Abelian subgroup C1      NOp   1
                         Standard orientation:                         
 ---------------------------------------------------------------------
 Center     Atomic     Atomic              Coordinates (Angstroms)
 Number     Number      Type              X           Y           Z
 ---------------------------------------------------------------------
    1          6             0        7.852813   -0.788372   -2.713729
    2          6             0        6.937889    0.039446   -1.802972
    3          6             0        5.951240   -0.836053   -1.011760
    4          6             0        5.054970   -0.038291   -0.032201
    5          6             0        4.172534    1.004192   -0.776732
    6          6             0        2.854932    1.298622   -0.048322
    7          7             0        2.120101    2.366863   -0.722771
    8          6             0        1.135729    3.135435   -0.082124
    9          6             0        0.740488    2.919390    1.259294
   10          6             0       -0.257129    3.722952    1.846739
   11          6             0       -0.868393    4.748815    1.102138
   12          6             0       -0.481429    4.968949   -0.232895
   13          6             0        0.515194    4.165494   -0.820286
   14          6             0        2.124862   -0.032030    0.102124
   15          6             0        0.755862   -0.192563   -0.212434
   16          6             0        0.121842   -1.451717   -0.122332
   17          6             0        0.900248   -2.562318    0.271122
   18          6             0        2.265189   -2.418592    0.581315
   19          6             0        2.881466   -1.146378    0.527977
   20          7             0        4.272599   -0.962331    0.832679
   21          6             0        4.851175   -1.435359    1.975414
   22          6             0        3.996819   -2.070951    3.075813
   23          8             0        6.063805   -1.342597    2.197373
   24          6             0       -1.311277   -1.604721   -0.445431
   25          6             0       -2.136229   -2.473412    0.305308
   26          6             0       -3.504064   -2.619629    0.002355
   27          6             0       -4.079908   -1.890872   -1.058622
   28          6             0       -5.561645   -2.050136   -1.392816
   29          6             0       -6.492994   -1.291331    0.793022
   30          6             0       -7.588071   -0.422304    1.440547
   31          6             0       -7.406285    1.059493    1.078291
   32          6             0       -7.336514    1.226906   -0.446719
   33          6             0       -6.246977    0.324419   -1.056037
   34          6             0       -3.263651   -1.030722   -1.822682
   35          6             0       -1.896992   -0.889222   -1.513536
   36          1             0        5.704817    0.552594    0.616535
   37          1             0        3.115292    1.647717    0.953227
   38          1             0        8.540717   -0.144501   -3.262768
   39          1             0        8.450758   -1.496059   -2.138463
   40          1             0        7.275663   -1.354267   -3.445384
   41          1             0        6.395255    0.763394   -2.411855
   42          1             0        7.550561    0.618488   -1.110740
   43          1             0        6.522922   -1.580827   -0.457131
   44          1             0        5.322169   -1.399260   -1.703441
   45          1             0        4.743776    1.922255   -0.921028
   46          1             0        3.938099    0.632328   -1.775199
   47          1             0        2.361316    2.570461   -1.687368
   48          1             0        1.179536    2.135715    1.859531
   49          1             0       -0.554379    3.548259    2.871945
   50          1             0       -1.634719    5.364804    1.553702
   51          1             0       -0.948062    5.755286   -0.808576
   52          1             0        0.798385    4.350684   -1.846950
   53          1             0        0.175355    0.659924   -0.531737
   54          1             0        0.453912   -3.545722    0.322707
   55          1             0        2.831833   -3.298382    0.847974
   56          1             0        3.830911   -3.128928    2.875729
   57          1             0        3.033980   -1.570503    3.180745
   58          1             0        4.504645   -1.994751    4.036825
   59          1             0       -1.721118   -3.032355    1.131860
   60          1             0       -4.107316   -3.294283    0.594398
   61          1             0       -5.699792   -1.936561   -2.468780
   62          1             0       -5.871693   -3.071841   -1.167740
   63          1             0       -6.676740   -2.341261    1.025594
   64          1             0       -5.524590   -1.038510    1.226418
   65          1             0       -7.564369   -0.545666    2.524296
   66          1             0       -8.572169   -0.764667    1.117445
   67          1             0       -8.225731    1.652643    1.487362
   68          1             0       -6.491306    1.441373    1.533627
   69          1             0       -8.304799    0.989851   -0.890527
   70          1             0       -7.135457    2.269399   -0.698134
   71          1             0       -6.254921    0.426926   -2.142181
   72          1             0       -5.265786    0.659541   -0.716561
   73          1             0       -3.679029   -0.473791   -2.650172
   74          1             0       -1.291554   -0.226197   -2.116440
   75          7             0       -6.454007   -1.098977   -0.680742
   76          1             0       -7.377840   -1.336259   -1.010862
 ---------------------------------------------------------------------
 Rotational constants (GHZ):      0.1684025      0.0480627      0.0425022
 Standard basis: 6-31G(d) (6D, 7F)
 There are   620 symmetry adapted basis functions of A   symmetry.
 Integral buffers will be    131072 words long.
 Raffenetti 1 integral format.
 Two-electron integral symmetry is turned on.
   620 basis functions,  1168 primitive gaussians,   620 cartesian basis functions
   130 alpha electrons      130 beta electrons
       nuclear repulsion energy      3712.4155596839 Hartrees.
 NAtoms=   76 NActive=   76 NUniq=   76 SFac= 7.50D-01 NAtFMM=   80 NAOKFM=F Big=T
 One-electron integrals computed using PRISM.
 NBasis=   620 RedAO= T  NBF=   620
 NBsUse=   620 1.00D-06 NBFU=   620
 Harris functional with IExCor=  205 diagonalized for initial guess.
 ExpMin= 1.61D-01 ExpMax= 5.48D+03 ExpMxC= 8.25D+02 IAcc=1 IRadAn=         1 AccDes= 1.00D-06
 HarFok:  IExCor= 205 AccDes= 1.00D-06 IRadAn=         1 IDoV=1
 ScaDFX=  1.000000  1.000000  1.000000  1.000000
 Initial guess orbital symmetries:
       Occupied  (A) (A) (A) (A) (A) (A) (A) (A) (A) (A) (A) (A)
                 (A) (A) (A) (A) (A) (A) (A) (A) (A) (A) (A) (A)
                 (A) (A) (A) (A) (A) (A) (A) (A) (A) (A) (A) (A)
                 (A) (A) (A) (A) (A) (A) (A) (A) (A) (A) (A) (A)
                 (A) (A) (A) (A) (A) (A) (A) (A) (A) (A) (A) (A)
                 (A) (A) (A) (A) (A) (A) (A) (A) (A) (A) (A) (A)
                 (A) (A) (A) (A) (A) (A) (A) (A) (A) (A) (A) (A)
                 (A) (A) (A) (A) (A) (A) (A) (A) (A) (A) (A) (A)
                 (A) (A) (A) (A) (A) (A) (A) (A) (A) (A) (A) (A)
                 (A) (A) (A) (A) (A) (A) (A) (A) (A) (A) (A) (A)
                 (A) (A) (A) (A) (A) (A) (A) (A) (A) (A)
       Virtual   (A) (A) (A) (A) (A) (A) (A) (A) (A) (A) (A) (A)
                 (A) (A) (A) (A) (A) (A) (A) (A) (A) (A) (A) (A)
                 (A) (A) (A) (A) (A) (A) (A) (A) (A) (A) (A) (A)
                 (A) (A) (A) (A) (A) (A) (A) (A) (A) (A) (A) (A)
                 (A) (A) (A) (A) (A) (A) (A) (A) (A) (A) (A) (A)
                 (A) (A) (A) (A) (A) (A) (A) (A) (A) (A) (A) (A)
                 (A) (A) (A) (A) (A) (A) (A) (A) (A) (A) (A) (A)
                 (A) (A) (A) (A) (A) (A) (A) (A) (A) (A) (A) (A)
                 (A) (A) (A) (A) (A) (A) (A) (A) (A) (A) (A) (A)
                 (A) (A) (A) (A) (A) (A) (A) (A) (A) (A) (A) (A)
                 (A) (A) (A) (A) (A) (A) (A) (A) (A) (A) (A) (A)
                 (A) (A) (A) (A) (A) (A) (A) (A) (A) (A) (A) (A)
                 (A) (A) (A) (A) (A) (A) (A) (A) (A) (A) (A) (A)
                 (A) (A) (A) (A) (A) (A) (A) (A) (A) (A) (A) (A)
                 (A) (A) (A) (A) (A) (A) (A) (A) (A) (A) (A) (A)
                 (A) (A) (A) (A) (A) (A) (A) (A) (A) (A) (A) (A)
                 (A) (A) (A) (A) (A) (A) (A) (A) (A) (A) (A) (A)
                 (A) (A) (A) (A) (A) (A) (A) (A) (A) (A) (A) (A)
                 (A) (A) (A) (A) (A) (A) (A) (A) (A) (A) (A) (A)
                 (A) (A) (A) (A) (A) (A) (A) (A) (A) (A) (A) (A)
                 (A) (A) (A) (A) (A) (A) (A) (A) (A) (A) (A) (A)
                 (A) (A) (A) (A) (A) (A) (A) (A) (A) (A) (A) (A)
                 (A) (A) (A) (A) (A) (A) (A) (A) (A) (A) (A) (A)
                 (A) (A) (A) (A) (A) (A) (A) (A) (A) (A) (A) (A)
                 (A) (A) (A) (A) (A) (A) (A) (A) (A) (A) (A) (A)
                 (A) (A) (A) (A) (A) (A) (A) (A) (A) (A) (A) (A)
                 (A) (A) (A) (A) (A) (A) (A) (A) (A) (A) (A) (A)
                 (A) (A) (A) (A) (A) (A) (A) (A) (A) (A) (A) (A)
                 (A) (A) (A) (A) (A) (A) (A) (A) (A) (A) (A) (A)
                 (A) (A) (A) (A) (A) (A) (A) (A) (A) (A) (A) (A)
                 (A) (A) (A) (A) (A) (A) (A) (A) (A) (A) (A) (A)
                 (A) (A) (A) (A) (A) (A) (A) (A) (A) (A) (A) (A)
                 (A) (A) (A) (A) (A) (A) (A) (A) (A) (A) (A) (A)
                 (A) (A) (A) (A) (A) (A) (A) (A) (A) (A) (A) (A)
                 (A) (A) (A) (A) (A) (A) (A) (A) (A) (A) (A) (A)
                 (A) (A) (A) (A) (A) (A) (A) (A) (A) (A) (A) (A)
                 (A) (A) (A) (A) (A) (A) (A) (A) (A) (A) (A) (A)
                 (A) (A) (A) (A) (A) (A) (A) (A) (A) (A) (A) (A)
                 (A) (A) (A) (A) (A) (A) (A) (A) (A) (A) (A) (A)
                 (A) (A) (A) (A) (A) (A) (A) (A) (A) (A) (A) (A)
                 (A) (A) (A) (A) (A) (A) (A) (A) (A) (A)
 The electronic state of the initial guess is 1-A.
 Requested convergence on RMS density matrix=1.00D-08 within 128 cycles.
 Requested convergence on MAX density matrix=1.00D-06.
 Requested convergence on             energy=1.00D-06.
 No special actions if energy rises.
 Integral accuracy reduced to 1.0D-05 until final iterations.
 Initial convergence to 1.0D-05 achieved.  Increase integral accuracy.
 SCF Done:  E(RHF) =  -1473.10745833     A.U. after   16 cycles
             Convg  =    0.6728D-08             -V/T =  2.0022
             S**2   =   0.0000

 **********************************************************************

            Population analysis using the SCF density.

 **********************************************************************

 Orbital symmetries:
 BldTbl:  Degeneracy threshold= 1.00D-02
       Occupied  (A) (A) (A) (A) (A) (A) (A) (A) (A) (A) (A) (A)
                 (A) (A) (A) (A) (A) (A) (A) (A) (A) (A) (A) (A)
                 (A) (A) (A) (A) (A) (A) (A) (A) (A) (A) (A) (A)
                 (A) (A) (A) (A) (A) (A) (A) (A) (A) (A) (A) (A)
                 (A) (A) (A) (A) (A) (A) (A) (A) (A) (A) (A) (A)
                 (A) (A) (A) (A) (A) (A) (A) (A) (A) (A) (A) (A)
                 (A) (A) (A) (A) (A) (A) (A) (A) (A) (A) (A) (A)
                 (A) (A) (A) (A) (A) (A) (A) (A) (A) (A) (A) (A)
                 (A) (A) (A) (A) (A) (A) (A) (A) (A) (A) (A) (A)
                 (A) (A) (A) (A) (A) (A) (A) (A) (A) (A) (A) (A)
                 (A) (A) (A) (A) (A) (A) (A) (A) (A) (A)
       Virtual   (A) (A) (A) (A) (A) (A) (A) (A) (A) (A) (A) (A)
                 (A) (A) (A) (A) (A) (A) (A) (A) (A) (A) (A) (A)
                 (A) (A) (A) (A) (A) (A) (A) (A) (A) (A) (A) (A)
                 (A) (A) (A) (A) (A) (A) (A) (A) (A) (A) (A) (A)
                 (A) (A) (A) (A) (A) (A) (A) (A) (A) (A) (A) (A)
                 (A) (A) (A) (A) (A) (A) (A) (A) (A) (A) (A) (A)
                 (A) (A) (A) (A) (A) (A) (A) (A) (A) (A) (A) (A)
                 (A) (A) (A) (A) (A) (A) (A) (A) (A) (A) (A) (A)
                 (A) (A) (A) (A) (A) (A) (A) (A) (A) (A) (A) (A)
                 (A) (A) (A) (A) (A) (A) (A) (A) (A) (A) (A) (A)
                 (A) (A) (A) (A) (A) (A) (A) (A) (A) (A) (A) (A)
                 (A) (A) (A) (A) (A) (A) (A) (A) (A) (A) (A) (A)
                 (A) (A) (A) (A) (A) (A) (A) (A) (A) (A) (A) (A)
                 (A) (A) (A) (A) (A) (A) (A) (A) (A) (A) (A) (A)
                 (A) (A) (A) (A) (A) (A) (A) (A) (A) (A) (A) (A)
                 (A) (A) (A) (A) (A) (A) (A) (A) (A) (A) (A) (A)
                 (A) (A) (A) (A) (A) (A) (A) (A) (A) (A) (A) (A)
                 (A) (A) (A) (A) (A) (A) (A) (A) (A) (A) (A) (A)
                 (A) (A) (A) (A) (A) (A) (A) (A) (A) (A) (A) (A)
                 (A) (A) (A) (A) (A) (A) (A) (A) (A) (A) (A) (A)
                 (A) (A) (A) (A) (A) (A) (A) (A) (A) (A) (A) (A)
                 (A) (A) (A) (A) (A) (A) (A) (A) (A) (A) (A) (A)
                 (A) (A) (A) (A) (A) (A) (A) (A) (A) (A) (A) (A)
                 (A) (A) (A) (A) (A) (A) (A) (A) (A) (A) (A) (A)
                 (A) (A) (A) (A) (A) (A) (A) (A) (A) (A) (A) (A)
                 (A) (A) (A) (A) (A) (A) (A) (A) (A) (A) (A) (A)
                 (A) (A) (A) (A) (A) (A) (A) (A) (A) (A) (A) (A)
                 (A) (A) (A) (A) (A) (A) (A) (A) (A) (A) (A) (A)
                 (A) (A) (A) (A) (A) (A) (A) (A) (A) (A) (A) (A)
                 (A) (A) (A) (A) (A) (A) (A) (A) (A) (A) (A) (A)
                 (A) (A) (A) (A) (A) (A) (A) (A) (A) (A) (A) (A)
                 (A) (A) (A) (A) (A) (A) (A) (A) (A) (A) (A) (A)
                 (A) (A) (A) (A) (A) (A) (A) (A) (A) (A) (A) (A)
                 (A) (A) (A) (A) (A) (A) (A) (A) (A) (A) (A) (A)
                 (A) (A) (A) (A) (A) (A) (A) (A) (A) (A) (A) (A)
                 (A) (A) (A) (A) (A) (A) (A) (A) (A) (A) (A) (A)
                 (A) (A) (A) (A) (A) (A) (A) (A) (A) (A) (A) (A)
                 (A) (A) (A) (A) (A) (A) (A) (A) (A) (A) (A) (A)
                 (A) (A) (A) (A) (A) (A) (A) (A) (A) (A) (A) (A)
                 (A) (A) (A) (A) (A) (A) (A) (A) (A) (A) (A) (A)
                 (A) (A) (A) (A) (A) (A) (A) (A) (A) (A)
 The electronic state is 1-A.
 Alpha  occ. eigenvalues --  -20.57635 -15.85332 -15.66544 -15.64013 -11.44097
 Alpha  occ. eigenvalues --  -11.43645 -11.43609 -11.41108 -11.37725 -11.37703
 Alpha  occ. eigenvalues --  -11.37548 -11.36449 -11.36434 -11.36406 -11.36272
 Alpha  occ. eigenvalues --  -11.36229 -11.35164 -11.35054 -11.34991 -11.34874
 Alpha  occ. eigenvalues --  -11.33445 -11.33253 -11.32484 -11.32393 -11.32218
 Alpha  occ. eigenvalues --  -11.32065 -11.30369 -11.30303 -11.30027 -11.29201
 Alpha  occ. eigenvalues --  -11.29132 -11.28794 -11.28581 -11.27016 -11.26877
 Alpha  occ. eigenvalues --  -11.25623  -1.49999  -1.42603  -1.32608  -1.30309
 Alpha  occ. eigenvalues --   -1.27451  -1.24223  -1.22239  -1.19840  -1.19202
 Alpha  occ. eigenvalues --   -1.17325  -1.14689  -1.12794  -1.12442  -1.10710
 Alpha  occ. eigenvalues --   -1.07950  -1.07480  -1.06930  -1.06021  -1.04057
 Alpha  occ. eigenvalues --   -1.03545  -1.03012  -0.99879  -0.96416  -0.95478
 Alpha  occ. eigenvalues --   -0.94641  -0.93698  -0.91412  -0.90013  -0.88989
 Alpha  occ. eigenvalues --   -0.87474  -0.86657  -0.85500  -0.85158  -0.84422
 Alpha  occ. eigenvalues --   -0.82904  -0.82140  -0.80138  -0.77760  -0.77618
 Alpha  occ. eigenvalues --   -0.76974  -0.75935  -0.74656  -0.74140  -0.73650
 Alpha  occ. eigenvalues --   -0.73150  -0.72849  -0.72443  -0.71802  -0.71100
 Alpha  occ. eigenvalues --   -0.70593  -0.69963  -0.69394  -0.68711  -0.68337
 Alpha  occ. eigenvalues --   -0.68065  -0.67866  -0.66560  -0.66263  -0.66073
 Alpha  occ. eigenvalues --   -0.65236  -0.64603  -0.64327  -0.63949  -0.63016
 Alpha  occ. eigenvalues --   -0.62063  -0.61936  -0.61616  -0.61386  -0.60965
 Alpha  occ. eigenvalues --   -0.60944  -0.60728  -0.60488  -0.59522  -0.59049
 Alpha  occ. eigenvalues --   -0.58372  -0.57884  -0.56879  -0.56217  -0.55963
 Alpha  occ. eigenvalues --   -0.55340  -0.55061  -0.53491  -0.52177  -0.52062
 Alpha  occ. eigenvalues --   -0.51255  -0.48694  -0.48153  -0.46471  -0.44788
 Alpha  occ. eigenvalues --   -0.44212  -0.40937  -0.39291  -0.37271  -0.34649
 Alpha virt. eigenvalues --   -0.01299   0.01655   0.03816   0.05438   0.07008
 Alpha virt. eigenvalues --    0.08048   0.09149   0.09862   0.10422   0.10580
 Alpha virt. eigenvalues --    0.12180   0.14042   0.14211   0.14343   0.14767
 Alpha virt. eigenvalues --    0.16109   0.16286   0.16341   0.16705   0.17105
 Alpha virt. eigenvalues --    0.17532   0.18042   0.18507   0.19181   0.19198
 Alpha virt. eigenvalues --    0.19314   0.20036   0.20231   0.20547   0.21557
 Alpha virt. eigenvalues --    0.21626   0.22519   0.22964   0.23453   0.23815
 Alpha virt. eigenvalues --    0.24140   0.24352   0.24567   0.25182   0.25303
 Alpha virt. eigenvalues --    0.25712   0.26093   0.26352   0.26878   0.27139
 Alpha virt. eigenvalues --    0.27379   0.27553   0.27945   0.28511   0.28777
 Alpha virt. eigenvalues --    0.29248   0.29447   0.29992   0.30130   0.30313
 Alpha virt. eigenvalues --    0.31215   0.31250   0.31545   0.31887   0.32328
 Alpha virt. eigenvalues --    0.33758   0.35192   0.35646   0.36046   0.37124
 Alpha virt. eigenvalues --    0.38032   0.38329   0.38492   0.39314   0.39358
 Alpha virt. eigenvalues --    0.40541   0.40913   0.42438   0.42745   0.43153
 Alpha virt. eigenvalues --    0.44451   0.46164   0.46559   0.47794   0.48866
 Alpha virt. eigenvalues --    0.49722   0.50388   0.51376   0.54718   0.55054
 Alpha virt. eigenvalues --    0.55463   0.55681   0.56998   0.57589   0.59017
 Alpha virt. eigenvalues --    0.60469   0.60849   0.61228   0.62254   0.62771
 Alpha virt. eigenvalues --    0.63749   0.63984   0.65369   0.66377   0.66553
 Alpha virt. eigenvalues --    0.66822   0.67250   0.67484   0.67779   0.68156
 Alpha virt. eigenvalues --    0.68568   0.69111   0.69558   0.70246   0.70483
 Alpha virt. eigenvalues --    0.70877   0.71095   0.71740   0.71873   0.72066
 Alpha virt. eigenvalues --    0.72609   0.72992   0.73761   0.74025   0.74859
 Alpha virt. eigenvalues --    0.74948   0.75120   0.75615   0.76252   0.76672
 Alpha virt. eigenvalues --    0.77402   0.77432   0.77713   0.77962   0.78186
 Alpha virt. eigenvalues --    0.78322   0.78654   0.79768   0.80126   0.81407
 Alpha virt. eigenvalues --    0.81745   0.82731   0.83217   0.83393   0.83827
 Alpha virt. eigenvalues --    0.84209   0.84607   0.84827   0.85243   0.86764
 Alpha virt. eigenvalues --    0.87970   0.88276   0.88377   0.88951   0.89250
 Alpha virt. eigenvalues --    0.90657   0.90840   0.91851   0.91917   0.92784
 Alpha virt. eigenvalues --    0.93422   0.94053   0.94286   0.94789   0.95726
 Alpha virt. eigenvalues --    0.95946   0.97365   0.97525   0.98325   0.98496
 Alpha virt. eigenvalues --    0.99564   0.99960   1.00090   1.00638   1.01336
 Alpha virt. eigenvalues --    1.01530   1.01901   1.02075   1.02841   1.03472
 Alpha virt. eigenvalues --    1.03727   1.04115   1.04446   1.05077   1.05369
 Alpha virt. eigenvalues --    1.05592   1.05861   1.05988   1.06214   1.06462
 Alpha virt. eigenvalues --    1.07146   1.07298   1.07665   1.07985   1.08709
 Alpha virt. eigenvalues --    1.08913   1.09211   1.09570   1.10017   1.10262
 Alpha virt. eigenvalues --    1.10300   1.11009   1.11157   1.11542   1.11650
 Alpha virt. eigenvalues --    1.12360   1.12672   1.12854   1.13333   1.14500
 Alpha virt. eigenvalues --    1.14641   1.14913   1.15486   1.15743   1.15824
 Alpha virt. eigenvalues --    1.16535   1.17552   1.17670   1.17879   1.18351
 Alpha virt. eigenvalues --    1.18762   1.19284   1.19461   1.20267   1.21148
 Alpha virt. eigenvalues --    1.22221   1.22816   1.23952   1.24874   1.25365
 Alpha virt. eigenvalues --    1.25713   1.26713   1.27029   1.27763   1.28992
 Alpha virt. eigenvalues --    1.29724   1.30423   1.30814   1.32470   1.32850
 Alpha virt. eigenvalues --    1.34521   1.35459   1.35978   1.36366   1.37401
 Alpha virt. eigenvalues --    1.39078   1.39738   1.40880   1.41313   1.42118
 Alpha virt. eigenvalues --    1.42770   1.43010   1.44168   1.45013   1.46309
 Alpha virt. eigenvalues --    1.47737   1.48414   1.50227   1.51100   1.51647
 Alpha virt. eigenvalues --    1.53350   1.55254   1.56737   1.58081   1.58381
 Alpha virt. eigenvalues --    1.59532   1.60905   1.61187   1.61290   1.62319
 Alpha virt. eigenvalues --    1.63613   1.64475   1.64846   1.65436   1.66180
 Alpha virt. eigenvalues --    1.67217   1.67934   1.68337   1.68547   1.68925
 Alpha virt. eigenvalues --    1.69928   1.70606   1.71154   1.71675   1.72618
 Alpha virt. eigenvalues --    1.73175   1.73732   1.75587   1.78390   1.78787
 Alpha virt. eigenvalues --    1.81369   1.82326   1.83689   1.84367   1.86061
 Alpha virt. eigenvalues --    1.88455   1.88852   1.91177   1.93004   1.93988
 Alpha virt. eigenvalues --    1.94683   1.95234   1.96852   1.97236   1.98046
 Alpha virt. eigenvalues --    1.98993   2.00234   2.00680   2.01200   2.01996
 Alpha virt. eigenvalues --    2.02198   2.02847   2.03558   2.04016   2.04345
 Alpha virt. eigenvalues --    2.05124   2.05705   2.06096   2.06148   2.07180
 Alpha virt. eigenvalues --    2.07710   2.08805   2.09142   2.09354   2.09726
 Alpha virt. eigenvalues --    2.10299   2.10541   2.12033   2.13419   2.13864
 Alpha virt. eigenvalues --    2.14460   2.15777   2.16801   2.17863   2.18047
 Alpha virt. eigenvalues --    2.18407   2.18770   2.19540   2.20360   2.20581
 Alpha virt. eigenvalues --    2.20747   2.22278   2.22660   2.23369   2.23951
 Alpha virt. eigenvalues --    2.24417   2.24850   2.25320   2.25882   2.26598
 Alpha virt. eigenvalues --    2.28245   2.28843   2.29378   2.30388   2.30918
 Alpha virt. eigenvalues --    2.31913   2.32409   2.32599   2.32716   2.34224
 Alpha virt. eigenvalues --    2.34346   2.35427   2.35894   2.37634   2.37833
 Alpha virt. eigenvalues --    2.39192   2.39307   2.40437   2.41705   2.43026
 Alpha virt. eigenvalues --    2.43564   2.44829   2.45619   2.46373   2.47706
 Alpha virt. eigenvalues --    2.48235   2.48754   2.49713   2.50426   2.50655
 Alpha virt. eigenvalues --    2.51644   2.52551   2.53395   2.53785   2.54092
 Alpha virt. eigenvalues --    2.54462   2.54695   2.55389   2.55907   2.56204
 Alpha virt. eigenvalues --    2.57632   2.57837   2.58341   2.59252   2.60317
 Alpha virt. eigenvalues --    2.61020   2.62542   2.64322   2.64852   2.65683
 Alpha virt. eigenvalues --    2.66334   2.67533   2.69047   2.70503   2.71458
 Alpha virt. eigenvalues --    2.73784   2.75980   2.77081   2.77455   2.78920
 Alpha virt. eigenvalues --    2.80303   2.80975   2.81482   2.83005   2.83868
 Alpha virt. eigenvalues --    2.84874   2.85242   2.85794   2.86406   2.88410
 Alpha virt. eigenvalues --    2.89806   2.90428   2.90897   2.91210   2.91533
 Alpha virt. eigenvalues --    2.92991   2.94440   2.95457   2.96661   2.97637
 Alpha virt. eigenvalues --    2.98671   2.99285   2.99381   3.00488   3.01802
 Alpha virt. eigenvalues --    3.02365   3.03590   3.04419   3.05095   3.07104
 Alpha virt. eigenvalues --    3.07631   3.10097   3.10716   3.11579   3.12732
 Alpha virt. eigenvalues --    3.16938   3.19729   3.20809   3.24155   3.25310
 Alpha virt. eigenvalues --    3.26575   3.32941   3.39431   3.47614   3.49849
 Alpha virt. eigenvalues --    3.54811   3.62174   3.70543   3.73309   4.28328
 Alpha virt. eigenvalues --    4.38820   4.40537   4.42258   4.43179   4.44722
 Alpha virt. eigenvalues --    4.45247   4.45942   4.47538   4.48069   4.49315
 Alpha virt. eigenvalues --    4.49898   4.50825   4.53039   4.55532   4.58514
 Alpha virt. eigenvalues --    4.61296   4.62478   4.65545   4.67123   4.69466
 Alpha virt. eigenvalues --    4.70319   4.70587   4.73558   4.74626   4.75581
 Alpha virt. eigenvalues --    4.80546   4.82217   4.83082   4.84636   4.87058
 Alpha virt. eigenvalues --    4.94951   5.02138   5.04663   5.09344   5.15071
          Condensed to atoms (all electrons):
 Mulliken atomic charges:
              1
     1  C   -0.480330
     2  C   -0.324973
     3  C   -0.307095
     4  C    0.070695
     5  C   -0.380107
     6  C    0.103167
     7  N   -0.892479
     8  C    0.395060
     9  C   -0.283342
    10  C   -0.178354
    11  C   -0.242250
    12  C   -0.178811
    13  C   -0.281480
    14  C   -0.033756
    15  C   -0.229612
    16  C   -0.001541
    17  C   -0.218387
    18  C   -0.207708
    19  C    0.312351
    20  N   -0.797623
    21  C    0.751676
    22  C   -0.579776
    23  O   -0.613151
    24  C    0.031296
    25  C   -0.214064
    26  C   -0.212608
    27  C   -0.015736
    28  C   -0.234890
    29  C   -0.191175
    30  C   -0.355727
    31  C   -0.333994
    32  C   -0.355588
    33  C   -0.191876
    34  C   -0.212191
    35  C   -0.209529
    36  H    0.218098
    37  H    0.201392
    38  H    0.169349
    39  H    0.169665
    40  H    0.155855
    41  H    0.151437
    42  H    0.170732
    43  H    0.205181
    44  H    0.151996
    45  H    0.205735
    46  H    0.173751
    47  H    0.386899
    48  H    0.208430
    49  H    0.206612
    50  H    0.195370
    51  H    0.208175
    52  H    0.197618
    53  H    0.241109
    54  H    0.217768
    55  H    0.233298
    56  H    0.192113
    57  H    0.181105
    58  H    0.227866
    59  H    0.237724
    60  H    0.215146
    61  H    0.248708
    62  H    0.248399
    63  H    0.235323
    64  H    0.252200
    65  H    0.230539
    66  H    0.189387
    67  H    0.219768
    68  H    0.192324
    69  H    0.188999
    70  H    0.231008
    71  H    0.235330
    72  H    0.253743
    73  H    0.215782
    74  H    0.241037
    75  N   -0.650675
    76  H    0.439610
 Sum of Mulliken charges=   1.00000
 Atomic charges with hydrogens summed into heavy atoms:
              1
     1  C    0.014539
     2  C   -0.002804
     3  C    0.050081
     4  C    0.288794
     5  C   -0.000620
     6  C    0.304559
     7  N   -0.505580
     8  C    0.395060
     9  C   -0.074912
    10  C    0.028258
    11  C   -0.046879
    12  C    0.029364
    13  C   -0.083862
    14  C   -0.033756
    15  C    0.011497
    16  C   -0.001541
    17  C   -0.000619
    18  C    0.025589
    19  C    0.312351
    20  N   -0.797623
    21  C    0.751676
    22  C    0.021308
    23  O   -0.613151
    24  C    0.031296
    25  C    0.023660
    26  C    0.002537
    27  C   -0.015736
    28  C    0.262217
    29  C    0.296348
    30  C    0.064199
    31  C    0.078099
    32  C    0.064419
    33  C    0.297197
    34  C    0.003591
    35  C    0.031508
    36  H    0.000000
    37  H    0.000000
    38  H    0.000000
    39  H    0.000000
    40  H    0.000000
    41  H    0.000000
    42  H    0.000000
    43  H    0.000000
    44  H    0.000000
    45  H    0.000000
    46  H    0.000000
    47  H    0.000000
    48  H    0.000000
    49  H    0.000000
    50  H    0.000000
    51  H    0.000000
    52  H    0.000000
    53  H    0.000000
    54  H    0.000000
    55  H    0.000000
    56  H    0.000000
    57  H    0.000000
    58  H    0.000000
    59  H    0.000000
    60  H    0.000000
    61  H    0.000000
    62  H    0.000000
    63  H    0.000000
    64  H    0.000000
    65  H    0.000000
    66  H    0.000000
    67  H    0.000000
    68  H    0.000000
    69  H    0.000000
    70  H    0.000000
    71  H    0.000000
    72  H    0.000000
    73  H    0.000000
    74  H    0.000000
    75  N   -0.211065
    76  H    0.000000
 Sum of Mulliken charges=   1.00000
 Entering OneElI...
 OneElI was handed  5702328 working-precision words.
 Multipole integrals L=0 to 4 MinM= 0 MaxM= 0.
 Requested accuracy = 0.1000D-12
 PrsmSu:  NPrtUS=   1 ThrOK=F
 PRISM was handed     4514155 working-precision words and 13566 shell-pairs
 Electronic moments (au):
  -260.00000000   -11.28036706    -1.41955493    -1.43742426
-19423.54224580 -4434.26488103 -1853.04160506    19.06714743
    -3.42535210    -5.53507263 27824.23781077-14930.35404636
  -959.67819255  2097.92495149 16711.36130125  7233.05097021
 -6359.26493118  1394.32679700 -2500.13926363  4257.19239392
******************************-38836.70504943 74077.19637450
180812.97563319  1955.06644327 -7371.42982820  -121.01985117
  3011.80362604******************************-26396.73081827
  3957.27603671 -8396.65969684 17111.94556095
 Electronic spatial extent (au):  <R**2>= 25710.8487
 Nuclear    moments (au):
   261.00000000     0.00000000     0.00000000     0.00000000
 19394.56680394  4289.21354678  1704.27819273     0.00000000
     0.00000000     0.00000000-29949.82313502 14853.22210531
   962.79351966 -2234.27299664-16829.85623260 -7476.95508408
  6241.02026407 -1379.87050968  2497.45119414 -4280.58025873
***************200345.92618455 32539.27472768-70613.06598161
*************** -2250.94652180  6803.10703390   289.01288485
 -3143.37488957115965.23179699174852.20111185 22755.69456253
 -3546.07161956  8377.17586226-16952.42520851
 Total      moments (au):
     1.00000000   -11.28036706    -1.41955493    -1.43742426
   -28.97544186  -145.05133426  -148.76341233    19.06714743
    -3.42535210    -5.53507263 -2125.58532424   -77.13194105
     3.11532711  -136.34804515  -118.49493135  -243.90411388
  -118.24466711    14.45628731    -2.68806949   -23.38786481
-48217.29472525-15848.14889369 -6297.43032175  3464.13039289
 -1069.60311106  -295.88007853  -568.32279430   167.99303367
  -131.57126354-12978.36949198-12119.49405868 -3641.03625574
   411.20441715   -19.48383458   159.52035244
 Charge=     1.0000 electrons
 Dipole moment (field-independent basis, Debye):
    X=   -28.6718    Y=    -3.6081    Z=    -3.6536  Tot=    29.1280
 Quadrupole moment (field-independent basis, Debye-Ang):
   XX=   -38.9730   YY=  -195.0990   ZZ=  -200.0919
   XY=    25.6460   XZ=    -4.6072   YZ=    -7.4449
 Traceless Quadrupole moment (field-independent basis, Debye-Ang):
   XX=   105.7483   YY=   -50.3777   ZZ=   -55.3706
   XY=    25.6460   XZ=    -4.6072   YZ=    -7.4449
 Octapole moment (field-independent basis, Debye-Ang**2):
  XXX= -1512.9096  YYY=   -54.8995  ZZZ=     2.2174  XYY=   -97.0473
  XXY=   -84.3401  XXZ=  -173.6015  XZZ=   -84.1620  YZZ=    10.2894
  YYZ=    -1.9133  XYZ=   -16.6466
 Hexadecapole moment (field-independent basis, Debye-Ang**3):
 XXXX=-18160.9438 YYYY= -5969.1723 ZZZZ= -2371.9140 XXXY=  1304.7575
 XXXZ=  -402.8638 YYYX=  -111.4426 YYYZ=  -214.0576 ZZZX=    63.2742
 ZZZY=   -49.5560 XXYY= -4888.2759 XXZZ= -4564.7822 YYZZ= -1371.3887
 XXYZ=   154.8793 YYXZ=    -7.3385 ZZXY=    60.0830
 N-N= 3.712415559684D+03 E-N=-1.083175756880D+04  KE= 1.469828701321D+03
 Entering OneElI...
 OneElI was handed  4931008 working-precision words.
 Calculate electrostatic properties
    NBasis =   620  MinDer = 0  MaxDer = 0
    NGrid  =    76  NMatD  =   1
 Requested accuracy = 0.1000D-12
 PrsmSu:  NPrtUS=   1 ThrOK=F
 PRISM was handed     3867467 working-precision words and 11432 shell-pairs
 --------------------------------------------------------
       Center         ----      EFG at Nuclei      ----
                      3XX-RR        3YY-RR        3ZZ-RR
 --------------------------------------------------------
     1   Atom        0.000227     -0.000739      0.000512
     2   Atom       -0.004077     -0.007149      0.011226
     3   Atom        0.008368     -0.012549      0.004181
     4   Atom        0.024186     -0.055805      0.031619
     5   Atom       -0.031888      0.033769     -0.001880
     6   Atom        0.007695     -0.094013      0.086318
     7   Atom        0.304300      0.143440     -0.447740
     8   Atom       -0.164625     -0.046141      0.210766
     9   Atom       -0.032779     -0.003435      0.036215
    10   Atom       -0.083106     -0.026777      0.109883
    11   Atom       -0.064478     -0.031128      0.095606
    12   Atom       -0.090391     -0.062658      0.153049
    13   Atom       -0.025862     -0.016966      0.042828
    14   Atom        0.126979      0.113105     -0.240084
    15   Atom        0.139498      0.154003     -0.293502
    16   Atom        0.043293      0.175564     -0.218857
    17   Atom        0.154150      0.131539     -0.285690
    18   Atom        0.152340      0.106708     -0.259048
    19   Atom       -0.089589      0.271032     -0.181443
    20   Atom       -0.460008      0.512419     -0.052412
    21   Atom        0.335106     -0.367428      0.032322
    22   Atom        0.034292      0.001887     -0.036179
    23   Atom       -0.892197     -0.382367      1.274564
    24   Atom        0.163781     -0.131742     -0.032039
    25   Atom        0.135205     -0.112525     -0.022681
    26   Atom        0.173407     -0.128501     -0.044906
    27   Atom       -0.030234     -0.011263      0.041496
    28   Atom        0.005379     -0.059862      0.054483
    29   Atom        0.228579      0.182879     -0.411458
    30   Atom       -0.036936     -0.004528      0.041464
    31   Atom        0.066261     -0.028468     -0.037794
    32   Atom       -0.032918      0.010598      0.022320
    33   Atom        0.215853     -0.366769      0.150916
    34   Atom        0.176896     -0.132132     -0.044764
    35   Atom        0.139218     -0.117835     -0.021383
[...]
 **** Fit       0.095165
 **** Fit       0.097256
 **** Fit       0.100158
 **** Fit       0.104043
 **** Fit       0.109149
 **** Fit       0.098453
 **** Fit       0.096725
 **** Fit       0.095833
 **** Fit       0.095702
 **** Fit       0.096305
 **** Fit       0.097663
 **** Fit       0.099851
 **** Fit       0.103000
 **** Fit       0.107308
 **** Fit       0.099558
 **** Fit       0.100664
 **** Fit       0.104357
 **** Fit       0.100778
 **** Fit       0.103856
 **** Fit       0.099778
 **** Fit       0.097442
 **** Fit       0.097051
 **** Fit       0.109260
 **** Fit       0.103813
 **** Fit       0.099771
 **** Fit       0.096860
 **** Fit       0.095056
 **** Fit       0.094370
 **** Fit       0.094882
 **** Fit       0.108944
 **** Fit       0.104135
 **** Fit       0.100030
 **** Fit       0.096910
 **** Fit       0.094671
 **** Fit       0.093246
 **** Fit       0.092620
 **** Fit       0.092850
 **** Fit       0.115574
 **** Fit       0.109321
 **** Fit       0.104742
 **** Fit       0.100501
 **** Fit       0.097231
 **** Fit       0.094788
 **** Fit       0.093058
 **** Fit       0.091975
 **** Fit       0.091536
 **** Fit       0.091801
 **** Fit       0.110143
 **** Fit       0.105611
 **** Fit       0.101303
 **** Fit       0.097948
 **** Fit       0.095392
 **** Fit       0.093508
 **** Fit       0.092192
 **** Fit       0.091391
 **** Fit       0.091113
 **** Fit       0.091424
 **** Fit       0.111103
 **** Fit       0.106818
 **** Fit       0.102258
 **** Fit       0.098716
 **** Fit       0.096034
 **** Fit       0.094069
 **** Fit       0.092685
 **** Fit       0.091792
 **** Fit       0.091365
 **** Fit       0.091449
 **** Fit       0.112651
 **** Fit       0.108581
 **** Fit       0.103820
 **** Fit       0.100093
 **** Fit       0.097274
 **** Fit       0.095224
 **** Fit       0.093787
 **** Fit       0.092838
 **** Fit       0.092320
 **** Fit       0.092245
 **** Fit       0.092692
 **** Fit       0.114598
 **** Fit       0.111269
 **** Fit       0.106181
 **** Fit       0.102170
 **** Fit       0.099143
 **** Fit       0.096964
 **** Fit       0.095464
 **** Fit       0.094491
 **** Fit       0.093961
 **** Fit       0.093865
 **** Fit       0.094259
 **** Fit       0.117594
 **** Fit       0.109540
 **** Fit       0.105009
 **** Fit       0.101649
 **** Fit       0.099292
 **** Fit       0.097733
 **** Fit       0.096795
 **** Fit       0.096380
 **** Fit       0.096473
 **** Fit       0.108900
 **** Fit       0.105086
 **** Fit       0.102516
 **** Fit       0.100925
 **** Fit       0.100110
 **** Fit       0.099964
 **** Fit       0.109744
 **** Fit       0.106976
 **** Fit       0.105437
 **** Fit       0.112075
 **** Fit       0.105524
 **** Fit       0.106549
 **** Fit       0.108640
 **** Fit       0.111904
 **** Fit       0.116521
 **** Fit       0.102317
 **** Fit       0.102747
 **** Fit       0.103993
 **** Fit       0.106107
 **** Fit       0.109185
 **** Fit       0.113382
 **** Fit       0.118937
 **** Fit       0.126223
 **** Fit       0.100204
 **** Fit       0.100469
 **** Fit       0.101445
 **** Fit       0.103159
 **** Fit       0.105672
 **** Fit       0.109094
 **** Fit       0.113599
 **** Fit       0.119455
 **** Fit       0.127087
 **** Fit       0.137205
 **** Fit       0.099051
 **** Fit       0.098983
 **** Fit       0.099637
 **** Fit       0.101004
 **** Fit       0.103122
 **** Fit       0.106069
 **** Fit       0.109984
 **** Fit       0.115082
 **** Fit       0.121698
 **** Fit       0.130358
 **** Fit       0.098615
 **** Fit       0.098434
 **** Fit       0.099033
 **** Fit       0.100384
 **** Fit       0.102513
 **** Fit       0.105497
 **** Fit       0.109474
 **** Fit       0.114659
 **** Fit       0.121380
 **** Fit       0.130124
 **** Fit       0.098948
 **** Fit       0.098607
 **** Fit       0.099103
 **** Fit       0.100392
 **** Fit       0.102489
 **** Fit       0.105459
 **** Fit       0.109428
 **** Fit       0.114589
 **** Fit       0.121215
 **** Fit       0.129662
 **** Fit       0.099563
 **** Fit       0.099736
 **** Fit       0.100873
 **** Fit       0.102965
 **** Fit       0.106069
 **** Fit       0.110308
 **** Fit       0.115864
 **** Fit       0.122961
 **** Fit       0.131789
 **** Fit       0.101533
 **** Fit       0.101193
 **** Fit       0.102047
 **** Fit       0.104053
 **** Fit       0.107246
 **** Fit       0.111718
 **** Fit       0.117588
 **** Fit       0.124923
 **** Fit       0.133559
 **** Fit       0.104257
 **** Fit       0.103657
 **** Fit       0.104675
 **** Fit       0.107258
 **** Fit       0.111409
 **** Fit       0.117125
 **** Fit       0.124238
 **** Fit       0.132176
 **** Fit       0.107540
 **** Fit       0.107318
 **** Fit       0.109768
 **** Fit       0.114669
 **** Fit       0.121465
 **** Fit       0.111949
 **** Fit       0.113178
 **** Fit       0.119308
 **** Fit       0.102216
 **** Fit       0.100294
 **** Fit       0.099187
 **** Fit       0.098857
 **** Fit       0.107382
 **** Fit       0.103448
 **** Fit       0.100614
 **** Fit       0.098617
 **** Fit       0.097305
 **** Fit       0.096609
 **** Fit       0.096521
 **** Fit       0.097068
 **** Fit       0.098310
 **** Fit       0.111862
 **** Fit       0.106495
 **** Fit       0.102592
 **** Fit       0.099745
 **** Fit       0.097676
 **** Fit       0.096217
 **** Fit       0.095280
 **** Fit       0.094830
 **** Fit       0.094870
 **** Fit       0.095426
 **** Fit       0.096543
 **** Fit       0.098279
 **** Fit       0.111140
 **** Fit       0.105892
 **** Fit       0.102032
 **** Fit       0.099183
 **** Fit       0.097079
 **** Fit       0.095549
 **** Fit       0.094497
 **** Fit       0.093880
 **** Fit       0.093686
 **** Fit       0.093930
 **** Fit       0.094641
 **** Fit       0.095867
 **** Fit       0.097673
 **** Fit       0.110201
 **** Fit       0.105099
 **** Fit       0.101317
 **** Fit       0.098512
 **** Fit       0.096436
 **** Fit       0.094929
 **** Fit       0.093898
 **** Fit       0.093301
 **** Fit       0.093128
 **** Fit       0.093391
 **** Fit       0.094127
 **** Fit       0.095389
 **** Fit       0.097263
 **** Fit       0.109296
 **** Fit       0.104368
 **** Fit       0.100693
 **** Fit       0.097965
 **** Fit       0.095961
 **** Fit       0.094536
 **** Fit       0.093607
 **** Fit       0.093140
 **** Fit       0.093130
 **** Fit       0.093604
 **** Fit       0.094611
 **** Fit       0.096235
 **** Fit       0.108671
 **** Fit       0.103977
 **** Fit       0.100448
 **** Fit       0.097828
 **** Fit       0.095925
 **** Fit       0.094615
 **** Fit       0.093828
 **** Fit       0.093539
 **** Fit       0.093757
 **** Fit       0.094521
 **** Fit       0.095906
 **** Fit       0.098028
 **** Fit       0.113472
 **** Fit       0.107545
 **** Fit       0.103067
 **** Fit       0.099759
 **** Fit       0.097386
 **** Fit       0.095780
 **** Fit       0.094843
 **** Fit       0.094535
 **** Fit       0.094866
 **** Fit       0.095893
 **** Fit       0.097720
 **** Fit       0.112171
 **** Fit       0.106593
 **** Fit       0.102443
 **** Fit       0.099485
 **** Fit       0.097520
 **** Fit       0.096421
 **** Fit       0.096135
 **** Fit       0.096678
 **** Fit       0.098125
 **** Fit       0.100611
 **** Fit       0.110646
 **** Fit       0.105457
 **** Fit       0.101816
 **** Fit       0.099541
 **** Fit       0.098495
 **** Fit       0.098635
 **** Fit       0.100017
 **** Fit       0.102766
 **** Fit       0.115408
 **** Fit       0.108835
 **** Fit       0.104273
 **** Fit       0.101905
 **** Fit       0.101700
 **** Fit       0.103700
 **** Fit       0.113261
 **** Fit       0.107366
 **** Fit       0.105792
 **** Fit       0.111203
 **** Fit       0.117709
 **** Fit       0.115942
 **** Fit       0.129354
 **** Fit       0.132978
 **** Fit       0.136754
 **** Fit       0.140432
 **** Fit       0.118115
 **** Fit       0.115427
 **** Fit       0.113945
 **** Fit       0.113339
 **** Fit       0.113325
 **** Fit       0.113653
 **** Fit       0.114141
 **** Fit       0.114774
 **** Fit       0.115723
 **** Fit       0.117187
 **** Fit       0.119223
 **** Fit       0.121754
 **** Fit       0.124669
 **** Fit       0.127833
 **** Fit       0.131063
 **** Fit       0.134179
 **** Fit       0.115755
 **** Fit       0.113667
 **** Fit       0.112541
 **** Fit       0.112141
 **** Fit       0.112242
 **** Fit       0.112693
 **** Fit       0.113482
 **** Fit       0.114703
 **** Fit       0.116429
 **** Fit       0.118633
 **** Fit       0.121203
 **** Fit       0.123970
 **** Fit       0.126730
 **** Fit       0.129292
 **** Fit       0.119374
 **** Fit       0.116317
 **** Fit       0.113895
 **** Fit       0.112410
 **** Fit       0.111790
 **** Fit       0.111852
 **** Fit       0.112474
 **** Fit       0.113642
 **** Fit       0.115364
 **** Fit       0.117557
 **** Fit       0.120025
 **** Fit       0.122487
 **** Fit       0.124627
 **** Fit       0.126096
 **** Fit       0.126529
 **** Fit       0.125855
 **** Fit       0.124414
 **** Fit       0.117066
 **** Fit       0.114478
 **** Fit       0.112723
 **** Fit       0.112122
 **** Fit       0.112580
 **** Fit       0.113955
 **** Fit       0.116044
 **** Fit       0.118428
 **** Fit       0.120477
 **** Fit       0.121523
 **** Fit       0.121171
 **** Fit       0.119560
 **** Fit       0.115712
 **** Fit       0.113615
 **** Fit       0.113463
 **** Fit       0.115251
 **** Fit       0.117376
 **** Fit       0.117663
 **** Fit       0.115135
 **** Fit       0.114876
 **** Fit       0.115240
 **** Fit       0.108629
 **** Fit       0.109260
 **** Fit       0.110658
 **** Fit       0.103755
 **** Fit       0.104713
 **** Fit       0.105903
 **** Fit       0.107732
 **** Fit       0.110447
 **** Fit       0.101722
 **** Fit       0.102923
 **** Fit       0.104519
 **** Fit       0.106855
 **** Fit       0.110036
 **** Fit       0.101406
 **** Fit       0.102733
 **** Fit       0.104673
 **** Fit       0.107378
 **** Fit       0.110884
 **** Fit       0.101419
 **** Fit       0.102497
 **** Fit       0.104129
 **** Fit       0.106506
 **** Fit       0.109691
 **** Fit       0.102843
 **** Fit       0.103700
 **** Fit       0.105210
 **** Fit       0.107554
 **** Fit       0.110829
 **** Fit       0.105269
 **** Fit       0.105906
 **** Fit       0.107400
 **** Fit       0.109893
 **** Fit       0.108356
 **** Fit       0.108783
 **** Fit       0.110281
 **** Fit       0.111924
 **** Fit       0.112584
 **** Fit       0.105773
 **** Fit       0.111152
 **** Fit       0.100146
 **** Fit       0.102597
 **** Fit       0.106558
 **** Fit       0.111889
 **** Fit       0.118513
 **** Fit       0.098801
 **** Fit       0.100333
 **** Fit       0.103149
 **** Fit       0.107169
 **** Fit       0.112290
 **** Fit       0.097121
 **** Fit       0.097743
 **** Fit       0.099250
 **** Fit       0.101841
 **** Fit       0.105512
 **** Fit       0.110143
 **** Fit       0.115519
 **** Fit       0.092949
 **** Fit       0.094424
 **** Fit       0.095524
 **** Fit       0.096611
 **** Fit       0.098210
 **** Fit       0.100648
 **** Fit       0.103993
 **** Fit       0.108095
 **** Fit       0.112600
 **** Fit       0.116909
 **** Fit       0.120212
 **** Fit       0.121831
 **** Fit       0.121559
 **** Fit       0.119427
 **** Fit       0.115507
 **** Fit       0.110222
 **** Fit       0.104429
 **** Fit       0.099021
 **** Fit       0.093012
 **** Fit       0.094334
 **** Fit       0.095782
 **** Fit       0.097636
 **** Fit       0.100211
 **** Fit       0.103543
 **** Fit       0.107306
 **** Fit       0.110835
 **** Fit       0.113270
 **** Fit       0.113919
 **** Fit       0.112533
 **** Fit       0.109274
 **** Fit       0.104751
 **** Fit       0.099946
 **** Fit       0.095827
 **** Fit       0.093038
 **** Fit       0.091814
 **** Fit       0.091981
 **** Fit       0.094083
 **** Fit       0.095511
 **** Fit       0.097679
 **** Fit       0.100661
 **** Fit       0.104082
 **** Fit       0.106841
 **** Fit       0.107634
 **** Fit       0.105866
 **** Fit       0.102117
 **** Fit       0.097915
 **** Fit       0.094836
 **** Fit       0.093638
 **** Fit       0.096047
 **** Fit       0.098079
 **** Fit       0.101310
 **** Fit       0.102710
 **** Fit       0.100212
 **** Fit       0.096765
 **** Fit       0.098899
 **** Fit       0.081276
 **** Fit       0.079616
 **** Fit       0.083257
 **** Fit       0.087605
 **** Fit       0.074267
 **** Fit       0.076744
 **** Fit       0.079525
 **** Fit       0.082719
 **** Fit       0.086586
 **** Fit       0.091319
 **** Fit       0.069749
 **** Fit       0.069576
 **** Fit       0.072947
 **** Fit       0.073652
 **** Fit       0.074301
 **** Fit       0.075022
 **** Fit       0.076117
 **** Fit       0.077739
 **** Fit       0.079849
 **** Fit       0.082461
 **** Fit       0.085717
 **** Fit       0.089783
 **** Fit       0.094793
 **** Fit       0.071944
 **** Fit       0.071934
 **** Fit       0.072309
 **** Fit       0.074812
 **** Fit       0.075624
 **** Fit       0.076530
 **** Fit       0.077617
 **** Fit       0.079050
 **** Fit       0.080952
 **** Fit       0.083431
 **** Fit       0.086633
 **** Fit       0.090706
 **** Fit       0.095764
 **** Fit       0.073920
 **** Fit       0.073832
 **** Fit       0.074166
 **** Fit       0.076457
 **** Fit       0.077333
 **** Fit       0.078439
 **** Fit       0.079836
 **** Fit       0.081659
 **** Fit       0.084062
 **** Fit       0.087196
 **** Fit       0.091177
 **** Fit       0.096021
 **** Fit       0.077000
 **** Fit       0.076026
 **** Fit       0.075680
 **** Fit       0.075864
 **** Fit       0.078156
 **** Fit       0.079129
 **** Fit       0.080534
 **** Fit       0.082448
 **** Fit       0.085016
 **** Fit       0.088363
 **** Fit       0.092452
 **** Fit       0.078814
 **** Fit       0.077834
 **** Fit       0.077674
 **** Fit       0.080121
 **** Fit       0.081353
 **** Fit       0.083486
 **** Fit       0.086541
 **** Fit       0.090302
 **** Fit       0.093748
 **** Fit       0.083627
 **** Fit       0.080980
 **** Fit       0.079903
 **** Fit       0.082540
 **** Fit       0.084529
 **** Fit       0.087989
 **** Fit       0.089604
 **** Fit       0.086730
 **** Fit       0.083261
 **** Fit       0.085616
 **** Fit       0.143791
 **** Fit       0.145702
 **** Fit       0.140234
 **** Fit       0.140644
 **** Fit       0.142084
 **** Fit       0.144669
 **** Fit       0.138490
 **** Fit       0.138024
 **** Fit       0.138319
 **** Fit       0.139419
 **** Fit       0.141425
 **** Fit       0.144543
 **** Fit       0.138630
 **** Fit       0.137305
 **** Fit       0.136614
 **** Fit       0.136554
 **** Fit       0.137148
 **** Fit       0.138458
 **** Fit       0.140599
 **** Fit       0.138415
 **** Fit       0.136815
 **** Fit       0.135901
 **** Fit       0.135613
 **** Fit       0.135948
 **** Fit       0.136942
 **** Fit       0.138673
 **** Fit       0.141280
 **** Fit       0.137952
 **** Fit       0.136360
 **** Fit       0.135511
 **** Fit       0.135325
 **** Fit       0.135789
 **** Fit       0.136938
 **** Fit       0.138845
 **** Fit       0.138009
 **** Fit       0.136475
 **** Fit       0.135709
 **** Fit       0.135633
 **** Fit       0.136238
 **** Fit       0.137557
 **** Fit       0.139657
 **** Fit       0.138653
 **** Fit       0.137132
 **** Fit       0.136484
 **** Fit       0.136657
 **** Fit       0.137659
 **** Fit       0.139552
 **** Fit       0.139912
 **** Fit       0.138439
 **** Fit       0.137983
 **** Fit       0.138536
 **** Fit       0.140156
 **** Fit       0.143252
 **** Fit       0.141083
 **** Fit       0.140294
 **** Fit       0.140923
 **** Fit       0.143105
 **** Fit       0.144091
 **** Fit       0.143720
 -----------------------------------------------------------------
 Leave Link  602 at Thu Sep 24 01:22:33 2015, MaxMem=    6291456 cpu:      22.5

 Test job not archived.
 1\1\GINC-COMPUTE-2-8\FOpt\RHF\6-31G(d)\C32H40N3O1(1+)\SHUNZHOU\24-Sep-
 2015\0\\#HF/6-31G* SCF=tight Test Pop=MK iop(6/33=2) iop(6/42=6) opt\\
 remark line goes here\\1,1\C,16.7324903382,7.8543850198,9.845082308\C,
 15.8469500264,6.9030453802,9.0406195929\C,15.0035404761,5.994232961,9.
 9390335878\C,14.0415640147,5.0845310821,9.1690043168\C,14.7673082045,4
 .0940454882,8.2352733256\C,14.010134919,2.7668243876,8.1064845278\N,14
 .6667723822,1.8938609756,7.1554698841\C,13.9502975396,1.0237171369,6.3
 3119902\C,12.6921760939,0.5355998109,6.6752255833\C,12.0322768833,-0.3
 488833529,5.8341790781\C,12.6045840823,-0.7719198466,4.6494876124\C,13
 .8621590741,-0.2923623125,4.3094950737\C,14.5277489298,0.59120282,5.13
 46638965\C,13.9460138324,2.1912480681,9.5089732271\C,14.3577957429,0.9
 180515515,9.8493127725\C,14.3262928878,0.4810431155,11.172329786\C,13.
 9086086599,1.3678893753,12.1575142852\C,13.5271988491,2.6573997025,11.
 8309836882\C,13.5142278299,3.0650217777,10.5059699833\N,13.1411929525,
 4.3639098821,10.0981612\C,11.9756171937,4.9994671961,10.4582080592\C,1
 0.914532864,4.2297965038,11.2195999184\O,11.7807584986,6.1414043006,10
 .1500369443\C,14.7489954743,-0.9030007985,11.5163700034\C,14.037626928
 ,-1.6641437877,12.4426834011\C,14.4278810826,-2.9527491546,12.75600066
 15\C,15.5342207957,-3.530135947,12.1424926935\C,15.9705455039,-4.92559
 96097,12.4973564159\C,13.882686783,-6.1452846888,11.7448292286\C,13.38
 34606099,-7.3750515926,10.9947812921\C,13.811903249,-7.3487337731,9.52
 69861708\C,15.327154335,-7.1737882831,9.4174291834\C,15.8046388549,-5.
 945972396,10.1845458995\C,16.2625331511,-2.7658263375,11.2363799584\C,
 15.8745611456,-1.4769624082,10.9253546361\H,13.3917532416,5.7030993944
 ,8.5702341745\H,12.9988174137,2.9865709149,7.7716762454\H,17.318600213
 4,8.4905581187,9.1900566279\H,16.1350774969,8.497253514,10.4840598552\
 H,17.4233437319,7.3059563253,10.4792735456\H,16.4738707895,6.307614925
 7,8.3811538848\H,15.1870370448,7.4827237854,8.3993239214\H,14.41282673
 62,6.6102616349,10.607314048\H,15.6545177204,5.3796695574,10.558969838
 8\H,14.8798575527,4.5539128506,7.2590396528\H,15.7644117544,3.87715850
 18,8.60839142\H,15.4268348089,2.3309894162,6.6828668021\H,12.223684159
 ,0.8359030804,7.593405755\H,11.0563581261,-0.7037403001,6.1157425085\H
 ,12.0840894239,-1.4516840892,4.0000880851\H,14.3254388945,-0.601724187
 9,3.3893470179\H,15.4998121173,0.9584722723,4.8522497698\H,14.68426330
 09,0.2587495511,9.0684522067\H,13.9211023521,1.073397374,13.1913717546
 \H,13.2591920425,3.3474461279,12.60826032\H,11.0716238384,4.3325053586
 ,12.287423024\H,10.8870860247,3.1767893066,10.9767282312\H,9.966554641
 8,4.6890963761,10.9794059515\H,13.1658728401,-1.2500364198,12.91380967
 56\H,13.864274343,-3.5043983993,13.4887277291\H,17.0421059029,-5.03798
 65526,12.407116092\H,15.6874918594,-5.1815696972,13.5089348352\H,13.65
 16579059,-6.1982638265,12.7997236089\H,13.4646945697,-5.2343321713,11.
 3437176521\H,12.3036584272,-7.4015827941,11.083320332\H,13.7565190699,
 -8.2746212175,11.4793397249\H,13.5074290626,-8.2642258069,9.0350606893
 \H,13.3112487614,-6.5321233109,9.0139482242\H,15.83606084,-8.059224278
 9,9.7919074732\H,15.6302996317,-7.0569996313,8.3835409772\H,16.8825937
 149,-5.8629606972,10.1769692084\H,15.3839120464,-5.0356850082,9.784891
 9454\H,17.1535005425,-3.1651485298,10.7830783583\H,16.4656528258,-0.90
 12436554,10.2382942812\N,15.3766932236,-6.0226839536,11.6244371149\H,1
 5.7617308192,-6.8811561053,11.988830222\\Version=AM64L-G03RevD.02\Stat
 e=1-A\HF=-1473.1348917\RMSD=7.440e-09\RMSF=4.272e-06\Thermal=0.\Dipole
 =2.0660129,-10.588436,2.8015663\PG=C01 [X(C32H40N3O1)]\\@


 MARY HAD A LITTLE LAMB
      HIS FEET WERE BLACK AS SOOT,
           AND EVERYWHERE THAT MARY WENT
                HIS SOOTY FOOT HE PUT.

                    -- NONAME
 Job cpu time:  0 days  7 hours  9 minutes  9.2 seconds.
 File lengths (MBytes):  RWF=    249 Int=      0 D2E=      0 Chk=     34 Scr=      1
 Normal termination of Gaussian 03 at Thu Sep 24 01:22:33 2015.
