 Entering Gaussian System, Link 0=g03
 Initial command:
 /share/apps//g03/l1.exe /state/partition1/mmpbsa.zM6565/Gau-6580.inp -scrdir=/state/partition1/mmpbsa.zM6565/
 Entering Link 1 = /share/apps//g03/l1.exe PID=      6589.
  
 Copyright (c) 1988,1990,1992,1993,1995,1998,2003,2004, Gaussian, Inc.
                  All Rights Reserved.
  
 This is the Gaussian(R) 03 program.  It is based on the
 the Gaussian(R) 98 system (copyright 1998, Gaussian, Inc.),
 the Gaussian(R) 94 system (copyright 1995, Gaussian, Inc.),
 the Gaussian 92(TM) system (copyright 1992, Gaussian, Inc.),
 the Gaussian 90(TM) system (copyright 1990, Gaussian, Inc.),
 the Gaussian 88(TM) system (copyright 1988, Gaussian, Inc.),
 the Gaussian 86(TM) system (copyright 1986, Carnegie Mellon
 University), and the Gaussian 82(TM) system (copyright 1983,
 Carnegie Mellon University). Gaussian is a federally registered
 trademark of Gaussian, Inc.
  
 This software contains proprietary and confidential information,
 including trade secrets, belonging to Gaussian, Inc.
  
 This software is provided under written license and may be
 used, copied, transmitted, or stored only in accord with that
 written license.
  
 The following legend is applicable only to US Government
 contracts under FAR:
  
                    RESTRICTED RIGHTS LEGEND
  
 Use, reproduction and disclosure by the US Government is
 subject to restrictions as set forth in subparagraphs (a)
 and (c) of the Commercial Computer Software - Restricted
 Rights clause in FAR 52.227-19.
  
 Gaussian, Inc.
 340 Quinnipiac St., Bldg. 40, Wallingford CT 06492
  
  
 ---------------------------------------------------------------
 Warning -- This program may not be used in any manner that
 competes with the business of Gaussian, Inc. or will provide
 assistance to any competitor of Gaussian, Inc.  The licensee
 of this program is prohibited from giving any competitor of
 Gaussian, Inc. access to this program.  By using this program,
 the user acknowledges that Gaussian, Inc. is engaged in the
 business of creating and licensing software in the field of
 computational chemistry and represents and warrants to the
 licensee that it is not a competitor of Gaussian, Inc. and that
 it will not use this program in any manner prohibited above.
 ---------------------------------------------------------------
  

 Cite this work as:
 Gaussian 03, Revision D.02,
 M. J. Frisch, G. W. Trucks, H. B. Schlegel, G. E. Scuseria, 
 M. A. Robb, J. R. Cheeseman, J. A. Montgomery, Jr., T. Vreven, 
 K. N. Kudin, J. C. Burant, J. M. Millam, S. S. Iyengar, J. Tomasi, 
 V. Barone, B. Mennucci, M. Cossi, G. Scalmani, N. Rega, 
 G. A. Petersson, H. Nakatsuji, M. Hada, M. Ehara, K. Toyota, 
 R. Fukuda, J. Hasegawa, M. Ishida, T. Nakajima, Y. Honda, O. Kitao, 
 H. Nakai, M. Klene, X. Li, J. E. Knox, H. P. Hratchian, J. B. Cross, 
 V. Bakken, C. Adamo, J. Jaramillo, R. Gomperts, R. E. Stratmann, 
 O. Yazyev, A. J. Austin, R. Cammi, C. Pomelli, J. W. Ochterski, 
 P. Y. Ayala, K. Morokuma, G. A. Voth, P. Salvador, J. J. Dannenberg, 
 V. G. Zakrzewski, S. Dapprich, A. D. Daniels, M. C. Strain, 
 O. Farkas, D. K. Malick, A. D. Rabuck, K. Raghavachari, 
 J. B. Foresman, J. V. Ortiz, Q. Cui, A. G. Baboul, S. Clifford, 
 J. Cioslowski, B. B. Stefanov, G. Liu, A. Liashenko, P. Piskorz, 
 I. Komaromi, R. L. Martin, D. J. Fox, T. Keith, M. A. Al-Laham, 
 C. Y. Peng, A. Nanayakkara, M. Challacombe, P. M. W. Gill, 
 B. Johnson, W. Chen, M. W. Wong, C. Gonzalez, and J. A. Pople, 
 Gaussian, Inc., Wallingford CT, 2004.
 
 ******************************************
 Gaussian 03:  AM64L-G03RevD.02  1-Mar-2006
                23-Sep-2015 
 ******************************************
 %chk=molecule
 ------------------------------------------------------------
 #HF/6-31G* SCF=tight Test Pop=MK iop(6/33=2) iop(6/42=6) opt
 ------------------------------------------------------------
 1/18=20,38=1/1,3;
 2/9=110,17=6,18=5,40=1/2;
 3/5=1,6=6,7=1,11=9,16=1,25=1,30=1/1,2,3;
 4//1;
 5/5=2,32=2,38=5/2;
 6/7=2,8=2,9=2,10=2,15=8,20=1,28=1,33=2,42=6/1,2;
 7//1,2,3,16;
 1/18=20/3(3);
 2/9=110/2;
 6/7=2,8=2,9=2,10=2,15=8,19=2,20=1,28=1,33=2,42=6/1,2;
 99//99;
 2/9=110/2;
 3/5=1,6=6,7=1,11=9,16=1,25=1,30=1/1,2,3;
 4/5=5,16=3/1;
 5/5=2,32=2,38=5/2;
 7//1,2,3,16;
 1/18=20/3(-5);
 2/9=110/2;
 6/7=2,8=2,9=2,10=2,15=8,19=2,20=1,28=1,33=2,42=6/1,2;
 99/9=1/99;
 ---------------------
 remark line goes here
 ---------------------
 Symbolic Z-matrix:
 Charge =  0 Multiplicity = 1
 C                     17.033   -5.49      11.678 
 O                     15.943   -4.875     12.355 
 C                     15.618   -3.58      12.017 
 C                     14.535   -2.992     12.697 
 C                     14.136   -1.672     12.413 
 C                     14.808   -0.901     11.438 
 C                     15.894   -1.495     10.758 
 C                     16.299   -2.815     11.039 
 C                     14.386    0.482     11.14 
 C                     13.968    1.352     12.171 
 C                     13.565    2.67      11.889 
 C                     13.545    3.143     10.556 
 N                     13.152    4.483     10.234 
 C                     13.967    5.208     9.223 
 C                     14.933    6.2       9.899 
 C                     14.727    4.269     8.246 
 C                     14.07     2.889     8.113 
 N                     14.756    2.083     7.107 
 C                     14.159    0.979     6.479 
 C                     14.911    0.28      5.51 
 C                     14.367   -0.838     4.849 
 C                     13.062   -1.27      5.151 
 C                     12.304   -0.581     6.116 
 C                     12.848    0.538     6.777 
 C                     13.996    2.297     9.518 
 C                     14.405    0.977     9.816 
 C                     11.987    5.056     10.662 
 O                     11.76     6.263     10.513 
 C                     10.86     4.213     11.309 
 C                     10.601    4.662     12.759 
 C                     9.569     4.319     10.476 
 H                     13.287    5.783     8.59 
 H                     13.047    3.055     7.771 
 H                     17.164   -6.505     12.052 
 H                     16.851   -5.557     10.605 
 H                     17.966   -4.953     11.852 
 H                     14.001   -3.559     13.446 
 H                     13.294   -1.254     12.948 
 H                     16.438   -0.933     10.012 
 H                     17.137   -3.215     10.487 
 H                     13.969    1.014     13.197 
 H                     13.275    3.313     12.707 
 H                     15.638    5.684     10.553 
 H                     14.4      6.934     10.504 
 H                     15.511    6.751     9.157 
 H                     14.81     4.753     7.271 
 H                     15.75     4.13      8.601 
 H                     15.703    2.347     6.854 
 H                     15.916    0.595     5.264 
 H                     14.953   -1.365     4.109 
 H                     12.644   -2.13      4.644 
 H                     11.302   -0.912     6.353 
 H                     12.239    1.035     7.518 
 H                     14.743    0.328     9.023 
 H                     11.115    3.156     11.318 
 H                     9.86      4.023     13.24 
 H                     11.508    4.621     13.363 
 H                     10.228    5.687     12.8 
 H                     8.787     3.678     10.883 
 H                     9.739     4.01      9.444 
 H                     9.183     5.339     10.457 
 

 GradGradGradGradGradGradGradGradGradGradGradGradGradGradGradGradGradGrad
 Berny optimization.
 Initialization pass.
                           ----------------------------
                           !    Initial Parameters    !
                           ! (Angstroms and Degrees)  !
 --------------------------                            --------------------------
 ! Name  Definition              Value          Derivative Info.                !
 --------------------------------------------------------------------------------
 ! R1    R(1,2)                  1.4229         estimate D2E/DX2                !
 ! R2    R(1,34)                 1.0896         estimate D2E/DX2                !
 ! R3    R(1,35)                 1.0904         estimate D2E/DX2                !
 ! R4    R(1,36)                 1.0905         estimate D2E/DX2                !
 ! R5    R(2,3)                  1.3773         estimate D2E/DX2                !
 ! R6    R(3,4)                  1.4075         estimate D2E/DX2                !
 ! R7    R(3,8)                  1.4161         estimate D2E/DX2                !
 ! R8    R(4,5)                  1.4079         estimate D2E/DX2                !
 ! R9    R(4,37)                 1.0806         estimate D2E/DX2                !
 ! R10   R(5,6)                  1.413          estimate D2E/DX2                !
 ! R11   R(5,38)                 1.0816         estimate D2E/DX2                !
 ! R12   R(6,7)                  1.4123         estimate D2E/DX2                !
 ! R13   R(6,9)                  1.4763         estimate D2E/DX2                !
 ! R14   R(7,8)                  1.409          estimate D2E/DX2                !
 ! R15   R(7,39)                 1.0809         estimate D2E/DX2                !
 ! R16   R(8,40)                 1.0803         estimate D2E/DX2                !
 ! R17   R(9,10)                 1.4123         estimate D2E/DX2                !
 ! R18   R(9,26)                 1.4136         estimate D2E/DX2                !
 ! R19   R(10,11)                1.4068         estimate D2E/DX2                !
 ! R20   R(10,41)                1.0802         estimate D2E/DX2                !
 ! R21   R(11,12)                1.4146         estimate D2E/DX2                !
 ! R22   R(11,42)                1.0801         estimate D2E/DX2                !
 ! R23   R(12,13)                1.4331         estimate D2E/DX2                !
 ! R24   R(12,25)                1.413          estimate D2E/DX2                !
 ! R25   R(13,14)                1.4873         estimate D2E/DX2                !
 ! R26   R(13,27)                1.367          estimate D2E/DX2                !
 ! R27   R(14,15)                1.5408         estimate D2E/DX2                !
 ! R28   R(14,16)                1.5537         estimate D2E/DX2                !
 ! R29   R(14,32)                1.0926         estimate D2E/DX2                !
 ! R30   R(15,43)                1.0913         estimate D2E/DX2                !
 ! R31   R(15,44)                1.0904         estimate D2E/DX2                !
 ! R32   R(15,45)                1.0901         estimate D2E/DX2                !
 ! R33   R(16,17)                1.5342         estimate D2E/DX2                !
 ! R34   R(16,46)                1.0917         estimate D2E/DX2                !
 ! R35   R(16,47)                1.0917         estimate D2E/DX2                !
 ! R36   R(17,18)                1.4602         estimate D2E/DX2                !
 ! R37   R(17,25)                1.5264         estimate D2E/DX2                !
 ! R38   R(17,33)                1.0914         estimate D2E/DX2                !
 ! R39   R(18,19)                1.4034         estimate D2E/DX2                !
 ! R40   R(18,48)                1.0151         estimate D2E/DX2                !
 ! R41   R(19,20)                1.4118         estimate D2E/DX2                !
 ! R42   R(19,24)                1.4149         estimate D2E/DX2                !
 ! R43   R(20,21)                1.4081         estimate D2E/DX2                !
 ! R44   R(20,49)                1.0816         estimate D2E/DX2                !
 ! R45   R(21,22)                1.4074         estimate D2E/DX2                !
 ! R46   R(21,50)                1.0811         estimate D2E/DX2                !
 ! R47   R(22,23)                1.4073         estimate D2E/DX2                !
 ! R48   R(22,51)                1.0823         estimate D2E/DX2                !
 ! R49   R(23,24)                1.4089         estimate D2E/DX2                !
 ! R50   R(23,52)                1.0815         estimate D2E/DX2                !
 ! R51   R(24,53)                1.0803         estimate D2E/DX2                !
 ! R52   R(25,26)                1.4137         estimate D2E/DX2                !
 ! R53   R(26,54)                1.079          estimate D2E/DX2                !
 ! R54   R(27,28)                1.2372         estimate D2E/DX2                !
 ! R55   R(27,29)                1.549          estimate D2E/DX2                !
 ! R56   R(29,30)                1.5399         estimate D2E/DX2                !
 ! R57   R(29,31)                1.5401         estimate D2E/DX2                !
 ! R58   R(29,55)                1.0874         estimate D2E/DX2                !
 ! R59   R(30,56)                1.0903         estimate D2E/DX2                !
 ! R60   R(30,57)                1.0905         estimate D2E/DX2                !
 ! R61   R(30,58)                1.0915         estimate D2E/DX2                !
 ! R62   R(31,59)                1.09           estimate D2E/DX2                !
 ! R63   R(31,60)                1.0906         estimate D2E/DX2                !
 ! R64   R(31,61)                1.0908         estimate D2E/DX2                !
 ! A1    A(2,1,34)             109.3541         estimate D2E/DX2                !
 ! A2    A(2,1,35)             111.5244         estimate D2E/DX2                !
 ! A3    A(2,1,36)             111.5095         estimate D2E/DX2                !
 ! A4    A(34,1,35)            107.4934         estimate D2E/DX2                !
 ! A5    A(34,1,36)            107.5232         estimate D2E/DX2                !
 ! A6    A(35,1,36)            109.2741         estimate D2E/DX2                !
 ! A7    A(1,2,3)              118.06           estimate D2E/DX2                !
 ! A8    A(2,3,4)              117.1172         estimate D2E/DX2                !
 ! A9    A(2,3,8)              124.3284         estimate D2E/DX2                !
 ! A10   A(4,3,8)              118.5544         estimate D2E/DX2                !
 ! A11   A(3,4,5)              120.8158         estimate D2E/DX2                !
 ! A12   A(3,4,37)             119.7304         estimate D2E/DX2                !
 ! A13   A(5,4,37)             119.4537         estimate D2E/DX2                !
 ! A14   A(4,5,6)              121.0623         estimate D2E/DX2                !
 ! A15   A(4,5,38)             118.8919         estimate D2E/DX2                !
 ! A16   A(6,5,38)             120.0427         estimate D2E/DX2                !
 ! A17   A(5,6,7)              117.9324         estimate D2E/DX2                !
 ! A18   A(5,6,9)              120.9626         estimate D2E/DX2                !
 ! A19   A(7,6,9)              121.1049         estimate D2E/DX2                !
 ! A20   A(6,7,8)              121.2658         estimate D2E/DX2                !
 ! A21   A(6,7,39)             120.0419         estimate D2E/DX2                !
 ! A22   A(8,7,39)             118.69           estimate D2E/DX2                !
 ! A23   A(3,8,7)              120.3691         estimate D2E/DX2                !
 ! A24   A(3,8,40)             121.7295         estimate D2E/DX2                !
 ! A25   A(7,8,40)             117.9014         estimate D2E/DX2                !
 ! A26   A(6,9,10)             120.9519         estimate D2E/DX2                !
 ! A27   A(6,9,26)             120.8794         estimate D2E/DX2                !
 ! A28   A(10,9,26)            118.1642         estimate D2E/DX2                !
 ! A29   A(9,10,11)            121.0367         estimate D2E/DX2                !
 ! A30   A(9,10,41)            120.0224         estimate D2E/DX2                !
 ! A31   A(11,10,41)           118.934          estimate D2E/DX2                !
 ! A32   A(10,11,12)           120.4123         estimate D2E/DX2                !
 ! A33   A(10,11,42)           118.8705         estimate D2E/DX2                !
 ! A34   A(12,11,42)           120.7169         estimate D2E/DX2                !
 ! A35   A(11,12,13)           121.8885         estimate D2E/DX2                !
 ! A36   A(11,12,25)           119.1786         estimate D2E/DX2                !
 ! A37   A(13,12,25)           118.8362         estimate D2E/DX2                !
 ! A38   A(12,13,14)           117.2755         estimate D2E/DX2                !
 ! A39   A(12,13,27)           123.7309         estimate D2E/DX2                !
 ! A40   A(14,13,27)           118.3921         estimate D2E/DX2                !
 ! A41   A(13,14,15)           111.0482         estimate D2E/DX2                !
 ! A42   A(13,14,16)           113.6347         estimate D2E/DX2                !
 ! A43   A(13,14,32)           108.0186         estimate D2E/DX2                !
 ! A44   A(15,14,16)           110.9966         estimate D2E/DX2                !
 ! A45   A(15,14,32)           107.7913         estimate D2E/DX2                !
 ! A46   A(16,14,32)           104.9631         estimate D2E/DX2                !
 ! A47   A(14,15,43)           111.3158         estimate D2E/DX2                !
 ! A48   A(14,15,44)           111.7379         estimate D2E/DX2                !
 ! A49   A(14,15,45)           111.0521         estimate D2E/DX2                !
 ! A50   A(43,15,44)           107.5515         estimate D2E/DX2                !
 ! A51   A(43,15,45)           107.7207         estimate D2E/DX2                !
 ! A52   A(44,15,45)           107.2547         estimate D2E/DX2                !
 ! A53   A(14,16,17)           112.8719         estimate D2E/DX2                !
 ! A54   A(14,16,46)           109.3212         estimate D2E/DX2                !
 ! A55   A(14,16,47)           109.3199         estimate D2E/DX2                !
 ! A56   A(17,16,46)           110.7278         estimate D2E/DX2                !
 ! A57   A(17,16,47)           108.3574         estimate D2E/DX2                !
 ! A58   A(46,16,47)           105.9991         estimate D2E/DX2                !
 ! A59   A(16,17,18)           110.7957         estimate D2E/DX2                !
 ! A60   A(16,17,25)           106.8473         estimate D2E/DX2                !
 ! A61   A(16,17,33)           106.9638         estimate D2E/DX2                !
 ! A62   A(18,17,25)           116.2848         estimate D2E/DX2                !
 ! A63   A(18,17,33)           107.9647         estimate D2E/DX2                !
 ! A64   A(25,17,33)           107.5774         estimate D2E/DX2                !
 ! A65   A(17,18,19)           122.8637         estimate D2E/DX2                !
 ! A66   A(17,18,48)           117.8014         estimate D2E/DX2                !
 ! A67   A(19,18,48)           119.3331         estimate D2E/DX2                !
 ! A68   A(18,19,20)           118.0366         estimate D2E/DX2                !
 ! A69   A(18,19,24)           123.0301         estimate D2E/DX2                !
 ! A70   A(20,19,24)           118.9329         estimate D2E/DX2                !
 ! A71   A(19,20,21)           120.6325         estimate D2E/DX2                !
 ! A72   A(19,20,49)           120.456          estimate D2E/DX2                !
 ! A73   A(21,20,49)           118.9115         estimate D2E/DX2                !
 ! A74   A(20,21,22)           120.079          estimate D2E/DX2                !
 ! A75   A(20,21,50)           119.9306         estimate D2E/DX2                !
 ! A76   A(22,21,50)           119.9903         estimate D2E/DX2                !
 ! A77   A(21,22,23)           119.7542         estimate D2E/DX2                !
 ! A78   A(21,22,51)           120.0985         estimate D2E/DX2                !
 ! A79   A(23,22,51)           120.1473         estimate D2E/DX2                !
 ! A80   A(22,23,24)           120.1711         estimate D2E/DX2                !
 ! A81   A(22,23,52)           119.9623         estimate D2E/DX2                !
 ! A82   A(24,23,52)           119.8665         estimate D2E/DX2                !
 ! A83   A(19,24,23)           120.4303         estimate D2E/DX2                !
 ! A84   A(19,24,53)           121.5618         estimate D2E/DX2                !
 ! A85   A(23,24,53)           118.005          estimate D2E/DX2                !
 ! A86   A(12,25,17)           117.3509         estimate D2E/DX2                !
 ! A87   A(12,25,26)           119.7715         estimate D2E/DX2                !
 ! A88   A(17,25,26)           122.8293         estimate D2E/DX2                !
 ! A89   A(9,26,25)            121.3658         estimate D2E/DX2                !
 ! A90   A(9,26,54)            118.8111         estimate D2E/DX2                !
 ! A91   A(25,26,54)           119.8228         estimate D2E/DX2                !
 ! A92   A(13,27,28)           121.8435         estimate D2E/DX2                !
 ! A93   A(13,27,29)           121.5139         estimate D2E/DX2                !
 ! A94   A(28,27,29)           116.6002         estimate D2E/DX2                !
 ! A95   A(27,29,30)           110.9162         estimate D2E/DX2                !
 ! A96   A(27,29,31)           110.2747         estimate D2E/DX2                !
 ! A97   A(27,29,55)           111.2145         estimate D2E/DX2                !
 ! A98   A(30,29,31)           110.3807         estimate D2E/DX2                !
 ! A99   A(30,29,55)           108.3664         estimate D2E/DX2                !
 ! A100  A(31,29,55)           105.5435         estimate D2E/DX2                !
 ! A101  A(29,30,56)           111.0288         estimate D2E/DX2                !
 ! A102  A(29,30,57)           111.7589         estimate D2E/DX2                !
 ! A103  A(29,30,58)           111.5097         estimate D2E/DX2                !
 ! A104  A(56,30,57)           107.3908         estimate D2E/DX2                !
 ! A105  A(56,30,58)           107.5501         estimate D2E/DX2                !
 ! A106  A(57,30,58)           107.3812         estimate D2E/DX2                !
 ! A107  A(29,31,59)           111.0371         estimate D2E/DX2                !
 ! A108  A(29,31,60)           111.2018         estimate D2E/DX2                !
 ! A109  A(29,31,61)           111.7425         estimate D2E/DX2                !
 ! A110  A(59,31,60)           107.3705         estimate D2E/DX2                !
 ! A111  A(59,31,61)           107.6107         estimate D2E/DX2                !
 ! A112  A(60,31,61)           107.6757         estimate D2E/DX2                !
 ! D1    D(34,1,2,3)          -179.9348         estimate D2E/DX2                !
 ! D2    D(35,1,2,3)           -61.1826         estimate D2E/DX2                !
 ! D3    D(36,1,2,3)            61.2854         estimate D2E/DX2                !
 ! D4    D(1,2,3,4)            179.8767         estimate D2E/DX2                !
 ! D5    D(1,2,3,8)             -0.1061         estimate D2E/DX2                !
 ! D6    D(2,3,4,5)            179.994          estimate D2E/DX2                !
 ! D7    D(2,3,4,37)            -0.0673         estimate D2E/DX2                !
 ! D8    D(8,3,4,5)             -0.0222         estimate D2E/DX2                !
 ! D9    D(8,3,4,37)           179.9165         estimate D2E/DX2                !
 ! D10   D(2,3,8,7)            179.927          estimate D2E/DX2                !
 ! D11   D(2,3,8,40)            -0.054          estimate D2E/DX2                !
 ! D12   D(4,3,8,7)             -0.0556         estimate D2E/DX2                !
 ! D13   D(4,3,8,40)           179.9634         estimate D2E/DX2                !
 ! D14   D(3,4,5,6)              0.093          estimate D2E/DX2                !
 ! D15   D(3,4,5,38)           179.4627         estimate D2E/DX2                !
 ! D16   D(37,4,5,6)          -179.8459         estimate D2E/DX2                !
 ! D17   D(37,4,5,38)           -0.4762         estimate D2E/DX2                !
 ! D18   D(4,5,6,7)             -0.0827         estimate D2E/DX2                !
 ! D19   D(4,5,6,9)            179.8736         estimate D2E/DX2                !
 ! D20   D(38,5,6,7)          -179.4452         estimate D2E/DX2                !
 ! D21   D(38,5,6,9)             0.5111         estimate D2E/DX2                !
 ! D22   D(5,6,7,8)              0.0042         estimate D2E/DX2                !
 ! D23   D(5,6,7,39)          -179.4402         estimate D2E/DX2                !
 ! D24   D(9,6,7,8)           -179.952          estimate D2E/DX2                !
 ! D25   D(9,6,7,39)             0.6036         estimate D2E/DX2                !
 ! D26   D(5,6,9,10)            38.8204         estimate D2E/DX2                !
 ! D27   D(5,6,9,26)          -141.9651         estimate D2E/DX2                !
 ! D28   D(7,6,9,10)          -141.2247         estimate D2E/DX2                !
 ! D29   D(7,6,9,26)            37.9898         estimate D2E/DX2                !
 ! D30   D(6,7,8,3)              0.0651         estimate D2E/DX2                !
 ! D31   D(6,7,8,40)          -179.9531         estimate D2E/DX2                !
 ! D32   D(39,7,8,3)           179.5169         estimate D2E/DX2                !
 ! D33   D(39,7,8,40)           -0.5014         estimate D2E/DX2                !
 ! D34   D(6,9,10,11)         -179.9738         estimate D2E/DX2                !
 ! D35   D(6,9,10,41)            0.9923         estimate D2E/DX2                !
 ! D36   D(26,9,10,11)           0.7908         estimate D2E/DX2                !
 ! D37   D(26,9,10,41)        -178.243          estimate D2E/DX2                !
 ! D38   D(6,9,26,25)          179.6377         estimate D2E/DX2                !
 ! D39   D(6,9,26,54)           -0.5506         estimate D2E/DX2                !
 ! D40   D(10,9,26,25)          -1.1263         estimate D2E/DX2                !
 ! D41   D(10,9,26,54)         178.6853         estimate D2E/DX2                !
 ! D42   D(9,10,11,12)           1.2918         estimate D2E/DX2                !
 ! D43   D(9,10,11,42)        -178.5198         estimate D2E/DX2                !
 ! D44   D(41,10,11,12)       -179.664          estimate D2E/DX2                !
 ! D45   D(41,10,11,42)          0.5244         estimate D2E/DX2                !
 ! D46   D(10,11,12,13)       -179.414          estimate D2E/DX2                !
 ! D47   D(10,11,12,25)         -3.0323         estimate D2E/DX2                !
 ! D48   D(42,11,12,13)          0.3941         estimate D2E/DX2                !
 ! D49   D(42,11,12,25)        176.7757         estimate D2E/DX2                !
 ! D50   D(11,12,13,14)        137.2007         estimate D2E/DX2                !
 ! D51   D(11,12,13,27)        -51.8527         estimate D2E/DX2                !
 ! D52   D(25,12,13,14)        -39.1929         estimate D2E/DX2                !
 ! D53   D(25,12,13,27)        131.7537         estimate D2E/DX2                !
 ! D54   D(11,12,25,17)       -174.8587         estimate D2E/DX2                !
 ! D55   D(11,12,25,26)          2.687          estimate D2E/DX2                !
 ! D56   D(13,12,25,17)          1.6343         estimate D2E/DX2                !
 ! D57   D(13,12,25,26)        179.18           estimate D2E/DX2                !
 ! D58   D(12,13,14,15)       -101.607          estimate D2E/DX2                !
 ! D59   D(12,13,14,16)         24.3719         estimate D2E/DX2                !
 ! D60   D(12,13,14,32)        140.394          estimate D2E/DX2                !
 ! D61   D(27,13,14,15)         86.948          estimate D2E/DX2                !
 ! D62   D(27,13,14,16)       -147.0731         estimate D2E/DX2                !
 ! D63   D(27,13,14,32)        -31.051          estimate D2E/DX2                !
 ! D64   D(12,13,27,28)        170.4297         estimate D2E/DX2                !
 ! D65   D(12,13,27,29)        -12.0183         estimate D2E/DX2                !
 ! D66   D(14,13,27,28)        -18.7181         estimate D2E/DX2                !
 ! D67   D(14,13,27,29)        158.8339         estimate D2E/DX2                !
 ! D68   D(13,14,15,43)         61.5338         estimate D2E/DX2                !
 ! D69   D(13,14,15,44)        -58.7356         estimate D2E/DX2                !
 ! D70   D(13,14,15,45)       -178.4472         estimate D2E/DX2                !
 ! D71   D(16,14,15,43)        -65.8977         estimate D2E/DX2                !
 ! D72   D(16,14,15,44)        173.8328         estimate D2E/DX2                !
 ! D73   D(16,14,15,45)         54.1213         estimate D2E/DX2                !
 ! D74   D(32,14,15,43)        179.6706         estimate D2E/DX2                !
 ! D75   D(32,14,15,44)         59.4011         estimate D2E/DX2                !
 ! D76   D(32,14,15,45)        -60.3105         estimate D2E/DX2                !
 ! D77   D(13,14,16,17)         24.1793         estimate D2E/DX2                !
 ! D78   D(13,14,16,46)        147.8871         estimate D2E/DX2                !
 ! D79   D(13,14,16,47)        -96.4917         estimate D2E/DX2                !
 ! D80   D(15,14,16,17)        150.1855         estimate D2E/DX2                !
 ! D81   D(15,14,16,46)        -86.1066         estimate D2E/DX2                !
 ! D82   D(15,14,16,47)         29.5146         estimate D2E/DX2                !
 ! D83   D(32,14,16,17)        -93.625          estimate D2E/DX2                !
 ! D84   D(32,14,16,46)         30.0828         estimate D2E/DX2                !
 ! D85   D(32,14,16,47)        145.704          estimate D2E/DX2                !
 ! D86   D(14,16,17,18)        175.4534         estimate D2E/DX2                !
 ! D87   D(14,16,17,25)        -56.9614         estimate D2E/DX2                !
 ! D88   D(14,16,17,33)         58.016          estimate D2E/DX2                !
 ! D89   D(46,16,17,18)         52.5255         estimate D2E/DX2                !
 ! D90   D(46,16,17,25)       -179.8893         estimate D2E/DX2                !
 ! D91   D(46,16,17,33)        -64.9119         estimate D2E/DX2                !
 ! D92   D(47,16,17,18)        -63.3279         estimate D2E/DX2                !
 ! D93   D(47,16,17,25)         64.2573         estimate D2E/DX2                !
 ! D94   D(47,16,17,33)        179.2347         estimate D2E/DX2                !
 ! D95   D(16,17,18,19)       -159.5778         estimate D2E/DX2                !
 ! D96   D(16,17,18,48)         19.9324         estimate D2E/DX2                !
 ! D97   D(25,17,18,19)         78.1906         estimate D2E/DX2                !
 ! D98   D(25,17,18,48)       -102.2993         estimate D2E/DX2                !
 ! D99   D(33,17,18,19)        -42.755          estimate D2E/DX2                !
 ! D100  D(33,17,18,48)        136.7552         estimate D2E/DX2                !
 ! D101  D(16,17,25,12)         45.2278         estimate D2E/DX2                !
 ! D102  D(16,17,25,26)       -132.2369         estimate D2E/DX2                !
 ! D103  D(18,17,25,12)        169.512          estimate D2E/DX2                !
 ! D104  D(18,17,25,26)         -7.9526         estimate D2E/DX2                !
 ! D105  D(33,17,25,12)        -69.3362         estimate D2E/DX2                !
 ! D106  D(33,17,25,26)        113.1991         estimate D2E/DX2                !
 ! D107  D(17,18,19,20)        179.3418         estimate D2E/DX2                !
 ! D108  D(17,18,19,24)         -0.8834         estimate D2E/DX2                !
 ! D109  D(48,18,19,20)         -0.1612         estimate D2E/DX2                !
 ! D110  D(48,18,19,24)        179.6136         estimate D2E/DX2                !
 ! D111  D(18,19,20,21)        179.8114         estimate D2E/DX2                !
 ! D112  D(18,19,20,49)         -0.1376         estimate D2E/DX2                !
 ! D113  D(24,19,20,21)          0.0271         estimate D2E/DX2                !
 ! D114  D(24,19,20,49)       -179.9218         estimate D2E/DX2                !
 ! D115  D(18,19,24,23)       -179.7717         estimate D2E/DX2                !
 ! D116  D(18,19,24,53)         -0.4028         estimate D2E/DX2                !
 ! D117  D(20,19,24,23)          0.0012         estimate D2E/DX2                !
 ! D118  D(20,19,24,53)        179.3701         estimate D2E/DX2                !
 ! D119  D(19,20,21,22)         -0.0109         estimate D2E/DX2                !
 ! D120  D(19,20,21,50)       -179.989          estimate D2E/DX2                !
 ! D121  D(49,20,21,22)        179.9388         estimate D2E/DX2                !
 ! D122  D(49,20,21,50)         -0.0393         estimate D2E/DX2                !
 ! D123  D(20,21,22,23)         -0.0338         estimate D2E/DX2                !
 ! D124  D(20,21,22,51)       -179.9259         estimate D2E/DX2                !
 ! D125  D(50,21,22,23)        179.9443         estimate D2E/DX2                !
 ! D126  D(50,21,22,51)          0.0522         estimate D2E/DX2                !
 ! D127  D(21,22,23,24)          0.062          estimate D2E/DX2                !
 ! D128  D(21,22,23,52)       -179.8022         estimate D2E/DX2                !
 ! D129  D(51,22,23,24)        179.9541         estimate D2E/DX2                !
 ! D130  D(51,22,23,52)          0.0898         estimate D2E/DX2                !
 ! D131  D(22,23,24,19)         -0.0458         estimate D2E/DX2                !
 ! D132  D(22,23,24,53)       -179.4367         estimate D2E/DX2                !
 ! D133  D(52,23,24,19)        179.8186         estimate D2E/DX2                !
 ! D134  D(52,23,24,53)          0.4276         estimate D2E/DX2                !
 ! D135  D(12,25,26,9)          -0.6183         estimate D2E/DX2                !
 ! D136  D(12,25,26,54)        179.572          estimate D2E/DX2                !
 ! D137  D(17,25,26,9)         176.7874         estimate D2E/DX2                !
 ! D138  D(17,25,26,54)         -3.0224         estimate D2E/DX2                !
 ! D139  D(13,27,29,30)        117.9932         estimate D2E/DX2                !
 ! D140  D(13,27,29,31)       -119.4163         estimate D2E/DX2                !
 ! D141  D(13,27,29,55)         -2.6836         estimate D2E/DX2                !
 ! D142  D(28,27,29,30)        -64.3324         estimate D2E/DX2                !
 ! D143  D(28,27,29,31)         58.2582         estimate D2E/DX2                !
 ! D144  D(28,27,29,55)        174.9908         estimate D2E/DX2                !
 ! D145  D(27,29,30,56)       -175.8388         estimate D2E/DX2                !
 ! D146  D(27,29,30,57)        -55.9562         estimate D2E/DX2                !
 ! D147  D(27,29,30,58)         64.2441         estimate D2E/DX2                !
 ! D148  D(31,29,30,56)         61.6321         estimate D2E/DX2                !
 ! D149  D(31,29,30,57)       -178.4853         estimate D2E/DX2                !
 ! D150  D(31,29,30,58)        -58.2851         estimate D2E/DX2                !
 ! D151  D(55,29,30,56)        -53.4902         estimate D2E/DX2                !
 ! D152  D(55,29,30,57)         66.3923         estimate D2E/DX2                !
 ! D153  D(55,29,30,58)       -173.4074         estimate D2E/DX2                !
 ! D154  D(27,29,31,59)        176.2193         estimate D2E/DX2                !
 ! D155  D(27,29,31,60)         56.7284         estimate D2E/DX2                !
 ! D156  D(27,29,31,61)        -63.6241         estimate D2E/DX2                !
 ! D157  D(30,29,31,59)        -60.8763         estimate D2E/DX2                !
 ! D158  D(30,29,31,60)        179.6327         estimate D2E/DX2                !
 ! D159  D(30,29,31,61)         59.2802         estimate D2E/DX2                !
 ! D160  D(55,29,31,59)         56.0104         estimate D2E/DX2                !
 ! D161  D(55,29,31,60)        -63.4805         estimate D2E/DX2                !
 ! D162  D(55,29,31,61)        176.167          estimate D2E/DX2                !
 --------------------------------------------------------------------------------
 Trust Radius=3.00D-01 FncErr=1.00D-07 GrdErr=1.00D-07
 Number of steps in this run= 348 maximum allowed number of steps= 366.
 GradGradGradGradGradGradGradGradGradGradGradGradGradGradGradGradGradGrad

 Stoichiometry    C27H30N2O2
 Framework group  C1[X(C27H30N2O2)]
 Deg. of freedom   177
 Full point group                 C1
 Largest Abelian subgroup         C1      NOp   1
 Largest concise Abelian subgroup C1      NOp   1
                         Standard orientation:                         
 ---------------------------------------------------------------------
 Center     Atomic     Atomic              Coordinates (Angstroms)
 Number     Number      Type              X           Y           Z
 ---------------------------------------------------------------------
    1          6             0       -7.527945   -1.292264   -0.557103
    2          8             0       -6.608144   -2.079783    0.190182
    3          6             0       -5.262896   -1.832942    0.028104
    4          6             0       -4.370923   -2.621560    0.778769
    5          6             0       -2.979362   -2.435346    0.673229
    6          6             0       -2.438386   -1.452428   -0.185764
    7          6             0       -3.337024   -0.663280   -0.936983
    8          6             0       -4.730564   -0.846054   -0.836851
    9          6             0       -0.978924   -1.257181   -0.292650
   10          6             0       -0.095880   -2.359310   -0.281296
   11          6             0        1.295146   -2.175289   -0.382488
   12          6             0        1.840652   -0.873123   -0.470837
   13          7             0        3.251393   -0.649619   -0.587406
   14          6             0        3.699907    0.382270   -1.560037
   15          6             0        4.214457   -0.267911   -2.858767
   16          6             0        2.623288    1.459935   -1.865621
   17          6             0        1.594973    1.612240   -0.737300
   18          7             0        0.671002    2.706497   -1.022164
   19          6             0       -0.086455    3.342393   -0.026421
   20          6             0       -0.938217    4.399401   -0.414108
   21          6             0       -1.725647    5.072870    0.539399
   22          6             0       -1.669615    4.695281    1.894072
   23          6             0       -0.824622    3.642306    2.291240
   24          6             0       -0.036265    2.968787    1.337362
   25          6             0        0.968267    0.237263   -0.521335
   26          6             0       -0.428012    0.037861   -0.425787
   27          6             0        4.178398   -1.192718    0.257842
   28          8             0        5.391951   -1.122261    0.027837
   29          6             0        3.762233   -1.879739    1.582303
   30          6             0        4.165255   -3.365926    1.580956
   31          6             0        4.396756   -1.153049    2.782765
   32          1             0        4.529989    0.932329   -1.110468
   33          1             0        2.150035    1.867183    0.167111
   34          1             0       -8.545053   -1.603712   -0.320984
   35          1             0       -7.443054   -0.234071   -0.308177
   36          1             0       -7.385618   -1.422099   -1.630425
   37          1             0       -4.756536   -3.379258    1.445734
   38          1             0       -2.322652   -3.052796    1.271059
   39          1             0       -2.959942    0.092437   -1.611517
   40          1             0       -5.367845   -0.212883   -1.436779
   41          1             0       -0.486301   -3.363977   -0.209628
   42          1             0        1.936648   -3.044197   -0.394540
   43          1             0        3.428328   -0.839965   -3.354502
   44          1             0        5.045466   -0.947639   -2.668341
   45          1             0        4.568557    0.486946   -3.560945
   46          1             0        3.114422    2.412807   -2.072001
   47          1             0        2.092288    1.190686   -2.780727
   48          1             0        0.586986    3.016703   -1.985091
   49          1             0       -0.996766    4.704449   -1.450102
   50          1             0       -2.374105    5.880622    0.229942
   51          1             0       -2.275609    5.211913    2.627035
   52          1             0       -0.781337    3.347253    3.330858
   53          1             0        0.592748    2.159813    1.679229
   54          1             0       -1.094569    0.885801   -0.457298
   55          1             0        2.687935   -1.816212    1.737875
   56          1             0        3.808916   -3.868744    2.480378
   57          1             0        3.749097   -3.896845    0.724169
   58          1             0        5.249471   -3.486550    1.544084
   59          1             0        4.059146   -1.585169    3.724755
   60          1             0        4.124974   -0.096909    2.793092
   61          1             0        5.485594   -1.214651    2.762894
 ---------------------------------------------------------------------
 Rotational constants (GHZ):      0.1710891      0.0875323      0.0681314
 Standard basis: 6-31G(d) (6D, 7F)
 There are   525 symmetry adapted basis functions of A   symmetry.
 Integral buffers will be    131072 words long.
 Raffenetti 1 integral format.
 Two-electron integral symmetry is turned on.
   525 basis functions,   988 primitive gaussians,   525 cartesian basis functions
   111 alpha electrons      111 beta electrons
       nuclear repulsion energy      2948.6435614007 Hartrees.
 NAtoms=   61 NActive=   61 NUniq=   61 SFac= 7.50D-01 NAtFMM=   80 NAOKFM=F Big=T
 One-electron integrals computed using PRISM.
 NBasis=   525 RedAO= T  NBF=   525
 NBsUse=   525 1.00D-06 NBFU=   525
 Harris functional with IExCor=  205 diagonalized for initial guess.
 ExpMin= 1.61D-01 ExpMax= 5.48D+03 ExpMxC= 8.25D+02 IAcc=1 IRadAn=         1 AccDes= 1.00D-06
 HarFok:  IExCor= 205 AccDes= 1.00D-06 IRadAn=         1 IDoV=1
 ScaDFX=  1.000000  1.000000  1.000000  1.000000
 Initial guess orbital symmetries:
       Occupied  (A) (A) (A) (A) (A) (A) (A) (A) (A) (A) (A) (A)
                 (A) (A) (A) (A) (A) (A) (A) (A) (A) (A) (A) (A)
                 (A) (A) (A) (A) (A) (A) (A) (A) (A) (A) (A) (A)
                 (A) (A) (A) (A) (A) (A) (A) (A) (A) (A) (A) (A)
                 (A) (A) (A) (A) (A) (A) (A) (A) (A) (A) (A) (A)
                 (A) (A) (A) (A) (A) (A) (A) (A) (A) (A) (A) (A)
                 (A) (A) (A) (A) (A) (A) (A) (A) (A) (A) (A) (A)
                 (A) (A) (A) (A) (A) (A) (A) (A) (A) (A) (A) (A)
                 (A) (A) (A) (A) (A) (A) (A) (A) (A) (A) (A) (A)
                 (A) (A) (A)
       Virtual   (A) (A) (A) (A) (A) (A) (A) (A) (A) (A) (A) (A)
                 (A) (A) (A) (A) (A) (A) (A) (A) (A) (A) (A) (A)
                 (A) (A) (A) (A) (A) (A) (A) (A) (A) (A) (A) (A)
                 (A) (A) (A) (A) (A) (A) (A) (A) (A) (A) (A) (A)
                 (A) (A) (A) (A) (A) (A) (A) (A) (A) (A) (A) (A)
                 (A) (A) (A) (A) (A) (A) (A) (A) (A) (A) (A) (A)
                 (A) (A) (A) (A) (A) (A) (A) (A) (A) (A) (A) (A)
                 (A) (A) (A) (A) (A) (A) (A) (A) (A) (A) (A) (A)
                 (A) (A) (A) (A) (A) (A) (A) (A) (A) (A) (A) (A)
                 (A) (A) (A) (A) (A) (A) (A) (A) (A) (A) (A) (A)
                 (A) (A) (A) (A) (A) (A) (A) (A) (A) (A) (A) (A)
                 (A) (A) (A) (A) (A) (A) (A) (A) (A) (A) (A) (A)
                 (A) (A) (A) (A) (A) (A) (A) (A) (A) (A) (A) (A)
                 (A) (A) (A) (A) (A) (A) (A) (A) (A) (A) (A) (A)
                 (A) (A) (A) (A) (A) (A) (A) (A) (A) (A) (A) (A)
                 (A) (A) (A) (A) (A) (A) (A) (A) (A) (A) (A) (A)
                 (A) (A) (A) (A) (A) (A) (A) (A) (A) (A) (A) (A)
                 (A) (A) (A) (A) (A) (A) (A) (A) (A) (A) (A) (A)
                 (A) (A) (A) (A) (A) (A) (A) (A) (A) (A) (A) (A)
                 (A) (A) (A) (A) (A) (A) (A) (A) (A) (A) (A) (A)
                 (A) (A) (A) (A) (A) (A) (A) (A) (A) (A) (A) (A)
                 (A) (A) (A) (A) (A) (A) (A) (A) (A) (A) (A) (A)
                 (A) (A) (A) (A) (A) (A) (A) (A) (A) (A) (A) (A)
                 (A) (A) (A) (A) (A) (A) (A) (A) (A) (A) (A) (A)
                 (A) (A) (A) (A) (A) (A) (A) (A) (A) (A) (A) (A)
                 (A) (A) (A) (A) (A) (A) (A) (A) (A) (A) (A) (A)
                 (A) (A) (A) (A) (A) (A) (A) (A) (A) (A) (A) (A)
                 (A) (A) (A) (A) (A) (A) (A) (A) (A) (A) (A) (A)
                 (A) (A) (A) (A) (A) (A) (A) (A) (A) (A) (A) (A)
                 (A) (A) (A) (A) (A) (A) (A) (A) (A) (A) (A) (A)
                 (A) (A) (A) (A) (A) (A) (A) (A) (A) (A) (A) (A)
                 (A) (A) (A) (A) (A) (A) (A) (A) (A) (A) (A) (A)
                 (A) (A) (A) (A) (A) (A) (A) (A) (A) (A) (A) (A)
                 (A) (A) (A) (A) (A) (A) (A) (A) (A) (A) (A) (A)
                 (A) (A) (A) (A) (A) (A)
 The electronic state of the initial guess is 1-A.
 Requested convergence on RMS density matrix=1.00D-08 within 128 cycles.
 Requested convergence on MAX density matrix=1.00D-06.
 Requested convergence on             energy=1.00D-06.
 No special actions if energy rises.
 Integral accuracy reduced to 1.0D-05 until final iterations.
 Initial convergence to 1.0D-05 achieved.  Increase integral accuracy.
 SCF Done:  E(RHF) =  -1298.53150268     A.U. after   16 cycles
             Convg  =    0.4338D-08             -V/T =  2.0025
             S**2   =   0.0000

 **********************************************************************

            Population analysis using the SCF density.

 **********************************************************************

 Orbital symmetries:
 BldTbl:  Degeneracy threshold= 1.00D-02
       Occupied  (A) (A) (A) (A) (A) (A) (A) (A) (A) (A) (A) (A)
                 (A) (A) (A) (A) (A) (A) (A) (A) (A) (A) (A) (A)
                 (A) (A) (A) (A) (A) (A) (A) (A) (A) (A) (A) (A)
                 (A) (A) (A) (A) (A) (A) (A) (A) (A) (A) (A) (A)
                 (A) (A) (A) (A) (A) (A) (A) (A) (A) (A) (A) (A)
                 (A) (A) (A) (A) (A) (A) (A) (A) (A) (A) (A) (A)
                 (A) (A) (A) (A) (A) (A) (A) (A) (A) (A) (A) (A)
                 (A) (A) (A) (A) (A) (A) (A) (A) (A) (A) (A) (A)
                 (A) (A) (A) (A) (A) (A) (A) (A) (A) (A) (A) (A)
                 (A) (A) (A)
       Virtual   (A) (A) (A) (A) (A) (A) (A) (A) (A) (A) (A) (A)
                 (A) (A) (A) (A) (A) (A) (A) (A) (A) (A) (A) (A)
                 (A) (A) (A) (A) (A) (A) (A) (A) (A) (A) (A) (A)
                 (A) (A) (A) (A) (A) (A) (A) (A) (A) (A) (A) (A)
                 (A) (A) (A) (A) (A) (A) (A) (A) (A) (A) (A) (A)
                 (A) (A) (A) (A) (A) (A) (A) (A) (A) (A) (A) (A)
                 (A) (A) (A) (A) (A) (A) (A) (A) (A) (A) (A) (A)
                 (A) (A) (A) (A) (A) (A) (A) (A) (A) (A) (A) (A)
                 (A) (A) (A) (A) (A) (A) (A) (A) (A) (A) (A) (A)
                 (A) (A) (A) (A) (A) (A) (A) (A) (A) (A) (A) (A)
                 (A) (A) (A) (A) (A) (A) (A) (A) (A) (A) (A) (A)
                 (A) (A) (A) (A) (A) (A) (A) (A) (A) (A) (A) (A)
                 (A) (A) (A) (A) (A) (A) (A) (A) (A) (A) (A) (A)
                 (A) (A) (A) (A) (A) (A) (A) (A) (A) (A) (A) (A)
                 (A) (A) (A) (A) (A) (A) (A) (A) (A) (A) (A) (A)
                 (A) (A) (A) (A) (A) (A) (A) (A) (A) (A) (A) (A)
                 (A) (A) (A) (A) (A) (A) (A) (A) (A) (A) (A) (A)
                 (A) (A) (A) (A) (A) (A) (A) (A) (A) (A) (A) (A)
                 (A) (A) (A) (A) (A) (A) (A) (A) (A) (A) (A) (A)
                 (A) (A) (A) (A) (A) (A) (A) (A) (A) (A) (A) (A)
                 (A) (A) (A) (A) (A) (A) (A) (A) (A) (A) (A) (A)
                 (A) (A) (A) (A) (A) (A) (A) (A) (A) (A) (A) (A)
                 (A) (A) (A) (A) (A) (A) (A) (A) (A) (A) (A) (A)
                 (A) (A) (A) (A) (A) (A) (A) (A) (A) (A) (A) (A)
                 (A) (A) (A) (A) (A) (A) (A) (A) (A) (A) (A) (A)
                 (A) (A) (A) (A) (A) (A) (A) (A) (A) (A) (A) (A)
                 (A) (A) (A) (A) (A) (A) (A) (A) (A) (A) (A) (A)
                 (A) (A) (A) (A) (A) (A) (A) (A) (A) (A) (A) (A)
                 (A) (A) (A) (A) (A) (A) (A) (A) (A) (A) (A) (A)
                 (A) (A) (A) (A) (A) (A) (A) (A) (A) (A) (A) (A)
                 (A) (A) (A) (A) (A) (A) (A) (A) (A) (A) (A) (A)
                 (A) (A) (A) (A) (A) (A) (A) (A) (A) (A) (A) (A)
                 (A) (A) (A) (A) (A) (A) (A) (A) (A) (A) (A) (A)
                 (A) (A) (A) (A) (A) (A) (A) (A) (A) (A) (A) (A)
                 (A) (A) (A) (A) (A) (A)
 The electronic state is 1-A.
 Alpha  occ. eigenvalues --  -20.59263 -20.51874 -15.60309 -15.57664 -11.34904
 Alpha  occ. eigenvalues --  -11.30805 -11.28782 -11.28772 -11.28735 -11.28472
 Alpha  occ. eigenvalues --  -11.27960 -11.25071 -11.25044 -11.24710 -11.24571
 Alpha  occ. eigenvalues --  -11.24485 -11.24293 -11.24284 -11.24197 -11.24052
 Alpha  occ. eigenvalues --  -11.24021 -11.23965 -11.23925 -11.23924 -11.23454
 Alpha  occ. eigenvalues --  -11.22812 -11.22746 -11.22182 -11.21807 -11.21546
 Alpha  occ. eigenvalues --  -11.21363  -1.40156  -1.36835  -1.26250  -1.23964
 Alpha  occ. eigenvalues --   -1.15959  -1.13266  -1.12435  -1.08455  -1.06452
 Alpha  occ. eigenvalues --   -1.05389  -1.02482  -1.01316  -1.00494  -0.99811
 Alpha  occ. eigenvalues --   -0.98400  -0.95517  -0.93768  -0.93182  -0.88794
 Alpha  occ. eigenvalues --   -0.87323  -0.85193  -0.83697  -0.82561  -0.81911
 Alpha  occ. eigenvalues --   -0.79993  -0.79785  -0.77498  -0.74696  -0.71669
 Alpha  occ. eigenvalues --   -0.71222  -0.68874  -0.68266  -0.67887  -0.67225
 Alpha  occ. eigenvalues --   -0.66339  -0.65379  -0.65166  -0.63301  -0.62681
 Alpha  occ. eigenvalues --   -0.62090  -0.61232  -0.60847  -0.60261  -0.59553
 Alpha  occ. eigenvalues --   -0.59212  -0.58765  -0.58346  -0.58151  -0.57745
 Alpha  occ. eigenvalues --   -0.57472  -0.56880  -0.55484  -0.54656  -0.53776
 Alpha  occ. eigenvalues --   -0.53578  -0.52883  -0.52411  -0.52148  -0.51650
 Alpha  occ. eigenvalues --   -0.50929  -0.50560  -0.50304  -0.49774  -0.48985
 Alpha  occ. eigenvalues --   -0.48766  -0.48595  -0.48016  -0.47425  -0.47335
 Alpha  occ. eigenvalues --   -0.46320  -0.45934  -0.42083  -0.40815  -0.39939
 Alpha  occ. eigenvalues --   -0.33857  -0.33631  -0.33409  -0.32642  -0.28227
 Alpha  occ. eigenvalues --   -0.27832
 Alpha virt. eigenvalues --    0.10357   0.12794   0.13383   0.14109   0.16247
 Alpha virt. eigenvalues --    0.17523   0.19690   0.22203   0.22602   0.23719
 Alpha virt. eigenvalues --    0.23906   0.24225   0.25361   0.25840   0.26327
 Alpha virt. eigenvalues --    0.28094   0.28539   0.28894   0.29927   0.30087
 Alpha virt. eigenvalues --    0.30602   0.30642   0.30899   0.31099   0.31534
 Alpha virt. eigenvalues --    0.31673   0.31932   0.32289   0.32591   0.33125
 Alpha virt. eigenvalues --    0.33462   0.33626   0.33718   0.34462   0.34861
 Alpha virt. eigenvalues --    0.35475   0.35645   0.36161   0.36590   0.36958
 Alpha virt. eigenvalues --    0.37890   0.38335   0.38506   0.40468   0.40758
 Alpha virt. eigenvalues --    0.41530   0.43577   0.43885   0.44405   0.45060
 Alpha virt. eigenvalues --    0.45466   0.45733   0.46457   0.46946   0.48769
 Alpha virt. eigenvalues --    0.49139   0.49970   0.50450   0.50878   0.52548
 Alpha virt. eigenvalues --    0.53821   0.54583   0.55170   0.56717   0.57583
 Alpha virt. eigenvalues --    0.57983   0.60989   0.63425   0.66039   0.68354
 Alpha virt. eigenvalues --    0.69704   0.70120   0.70982   0.71619   0.72221
 Alpha virt. eigenvalues --    0.72607   0.73105   0.73564   0.74177   0.74482
 Alpha virt. eigenvalues --    0.74812   0.74959   0.75722   0.76195   0.76623
 Alpha virt. eigenvalues --    0.77097   0.77801   0.78273   0.78758   0.79007
 Alpha virt. eigenvalues --    0.79178   0.79816   0.80843   0.81287   0.81701
 Alpha virt. eigenvalues --    0.82051   0.82397   0.82648   0.83479   0.83723
 Alpha virt. eigenvalues --    0.83984   0.84053   0.84475   0.84654   0.84686
 Alpha virt. eigenvalues --    0.85493   0.87132   0.87652   0.88198   0.88821
 Alpha virt. eigenvalues --    0.89416   0.90110   0.90758   0.91189   0.91438
 Alpha virt. eigenvalues --    0.92234   0.92651   0.93799   0.94415   0.94590
 Alpha virt. eigenvalues --    0.95570   0.96517   0.96671   0.98079   0.99342
 Alpha virt. eigenvalues --    1.00494   1.01494   1.02437   1.03320   1.04001
 Alpha virt. eigenvalues --    1.04977   1.05787   1.06015   1.07429   1.08134
 Alpha virt. eigenvalues --    1.09141   1.09499   1.10506   1.10781   1.10996
 Alpha virt. eigenvalues --    1.11299   1.11804   1.12091   1.12238   1.12311
 Alpha virt. eigenvalues --    1.12405   1.12808   1.13355   1.13466   1.14224
 Alpha virt. eigenvalues --    1.14500   1.15196   1.15875   1.16129   1.16729
 Alpha virt. eigenvalues --    1.17219   1.17889   1.18299   1.18637   1.18985
 Alpha virt. eigenvalues --    1.19237   1.19493   1.19562   1.19869   1.20244
 Alpha virt. eigenvalues --    1.20738   1.20864   1.21428   1.21856   1.22583
 Alpha virt. eigenvalues --    1.23453   1.23886   1.24160   1.24883   1.25659
 Alpha virt. eigenvalues --    1.26104   1.26143   1.27284   1.28461   1.28716
 Alpha virt. eigenvalues --    1.29072   1.30296   1.31707   1.32241   1.32700
 Alpha virt. eigenvalues --    1.33468   1.34102   1.34733   1.36373   1.37539
 Alpha virt. eigenvalues --    1.38379   1.39795   1.40700   1.41230   1.41795
 Alpha virt. eigenvalues --    1.42761   1.43369   1.44006   1.45911   1.46541
 Alpha virt. eigenvalues --    1.48127   1.48606   1.50454   1.51228   1.51394
 Alpha virt. eigenvalues --    1.52677   1.54188   1.55978   1.56127   1.58063
 Alpha virt. eigenvalues --    1.61440   1.63528   1.63863   1.64429   1.65973
 Alpha virt. eigenvalues --    1.66880   1.68136   1.68691   1.69120   1.71063
 Alpha virt. eigenvalues --    1.71502   1.71871   1.72814   1.73073   1.73371
 Alpha virt. eigenvalues --    1.74569   1.75991   1.76590   1.77277   1.77620
 Alpha virt. eigenvalues --    1.77914   1.78635   1.78820   1.79532   1.80602
 Alpha virt. eigenvalues --    1.81204   1.83572   1.85974   1.86926   1.90168
 Alpha virt. eigenvalues --    1.92563   1.94320   1.95387   1.97804   2.00364
 Alpha virt. eigenvalues --    2.00769   2.01808   2.04620   2.05801   2.06260
 Alpha virt. eigenvalues --    2.07330   2.07559   2.08320   2.09973   2.10484
 Alpha virt. eigenvalues --    2.11095   2.11133   2.11864   2.12486   2.13100
 Alpha virt. eigenvalues --    2.14274   2.14683   2.15289   2.16774   2.17078
 Alpha virt. eigenvalues --    2.17579   2.18572   2.19124   2.21171   2.22790
 Alpha virt. eigenvalues --    2.23428   2.24685   2.24848   2.25685   2.26230
 Alpha virt. eigenvalues --    2.26700   2.27899   2.28845   2.29888   2.30614
 Alpha virt. eigenvalues --    2.30957   2.31097   2.32009   2.33241   2.35000
 Alpha virt. eigenvalues --    2.35912   2.35986   2.36912   2.37561   2.38465
 Alpha virt. eigenvalues --    2.39472   2.40379   2.40668   2.41173   2.41790
 Alpha virt. eigenvalues --    2.42307   2.43666   2.44231   2.44547   2.45550
 Alpha virt. eigenvalues --    2.46242   2.46656   2.48144   2.48215   2.49294
 Alpha virt. eigenvalues --    2.51277   2.52682   2.53696   2.54584   2.54734
 Alpha virt. eigenvalues --    2.56126   2.56379   2.56800   2.57576   2.59112
 Alpha virt. eigenvalues --    2.60541   2.61487   2.62063   2.62405   2.62674
 Alpha virt. eigenvalues --    2.62726   2.64501   2.66679   2.67194   2.67566
 Alpha virt. eigenvalues --    2.69306   2.70002   2.70135   2.73296   2.73796
 Alpha virt. eigenvalues --    2.75601   2.76155   2.78929   2.82274   2.83308
 Alpha virt. eigenvalues --    2.83379   2.84494   2.86747   2.86982   2.88074
 Alpha virt. eigenvalues --    2.88639   2.91209   2.92766   2.93084   2.95338
 Alpha virt. eigenvalues --    2.95463   2.96145   2.96778   2.97656   2.98133
 Alpha virt. eigenvalues --    2.99265   3.00280   3.02438   3.04689   3.05196
 Alpha virt. eigenvalues --    3.06640   3.07280   3.08744   3.09015   3.10547
 Alpha virt. eigenvalues --    3.10637   3.11248   3.13259   3.15290   3.15654
 Alpha virt. eigenvalues --    3.16654   3.18332   3.20484   3.26261   3.27511
 Alpha virt. eigenvalues --    3.29979   3.31241   3.33179   3.35045   3.39615
 Alpha virt. eigenvalues --    3.42418   3.51429   3.56164   3.56354   3.63431
 Alpha virt. eigenvalues --    3.73304   3.76979   3.82586   4.47287   4.47553
 Alpha virt. eigenvalues --    4.51154   4.52321   4.53525   4.54015   4.54433
 Alpha virt. eigenvalues --    4.54695   4.57912   4.58909   4.60547   4.62137
 Alpha virt. eigenvalues --    4.63987   4.67982   4.71327   4.72842   4.73517
 Alpha virt. eigenvalues --    4.74986   4.76391   4.76799   4.80328   4.81560
 Alpha virt. eigenvalues --    4.82716   4.86141   4.93955   4.97486   5.07494
 Alpha virt. eigenvalues --    5.12286   5.15104   5.17539   5.24272
          Condensed to atoms (all electrons):
 Mulliken atomic charges:
              1
     1  C   -0.185457
     2  O   -0.665571
     3  C    0.434066
     4  C   -0.251249
     5  C   -0.200631
     6  C   -0.009238
     7  C   -0.195477
     8  C   -0.283637
     9  C    0.017529
    10  C   -0.226041
    11  C   -0.212960
    12  C    0.297028
    13  N   -0.804160
    14  C    0.070343
    15  C   -0.482773
    16  C   -0.372055
    17  C    0.104727
    18  N   -0.890799
    19  C    0.396097
    20  C   -0.279262
    21  C   -0.176008
    22  C   -0.238058
    23  C   -0.174208
    24  C   -0.279017
    25  C   -0.032673
    26  C   -0.239468
    27  C    0.783167
    28  O   -0.640765
    29  C   -0.253797
    30  C   -0.479588
    31  C   -0.475053
    32  H    0.209303
    33  H    0.191497
    34  H    0.192496
    35  H    0.164340
    36  H    0.163216
    37  H    0.217848
    38  H    0.212938
    39  H    0.213821
    40  H    0.208934
    41  H    0.213893
    42  H    0.223638
    43  H    0.159758
    44  H    0.206864
    45  H    0.155754
    46  H    0.191313
    47  H    0.172280
    48  H    0.381978
    49  H    0.189786
    50  H    0.201698
    51  H    0.192825
    52  H    0.205338
    53  H    0.208609
    54  H    0.242098
    55  H    0.193868
    56  H    0.165613
    57  H    0.157848
    58  H    0.192291
    59  H    0.163694
    60  H    0.160130
    61  H    0.191319
 Sum of Mulliken charges=   0.00000
 Atomic charges with hydrogens summed into heavy atoms:
              1
     1  C    0.334596
     2  O   -0.665571
     3  C    0.434066
     4  C   -0.033402
     5  C    0.012307
     6  C   -0.009238
     7  C    0.018344
     8  C   -0.074703
     9  C    0.017529
    10  C   -0.012148
    11  C    0.010678
    12  C    0.297028
    13  N   -0.804160
    14  C    0.279646
    15  C    0.039602
    16  C   -0.008462
    17  C    0.296223
    18  N   -0.508821
    19  C    0.396097
    20  C   -0.089476
    21  C    0.025691
    22  C   -0.045232
    23  C    0.031130
    24  C   -0.070407
    25  C   -0.032673
    26  C    0.002630
    27  C    0.783167
    28  O   -0.640765
    29  C   -0.059929
    30  C    0.036164
    31  C    0.040089
    32  H    0.000000
    33  H    0.000000
    34  H    0.000000
    35  H    0.000000
    36  H    0.000000
    37  H    0.000000
    38  H    0.000000
    39  H    0.000000
    40  H    0.000000
    41  H    0.000000
    42  H    0.000000
    43  H    0.000000
    44  H    0.000000
    45  H    0.000000
    46  H    0.000000
    47  H    0.000000
    48  H    0.000000
    49  H    0.000000
    50  H    0.000000
    51  H    0.000000
    52  H    0.000000
    53  H    0.000000
    54  H    0.000000
    55  H    0.000000
    56  H    0.000000
    57  H    0.000000
    58  H    0.000000
    59  H    0.000000
    60  H    0.000000
    61  H    0.000000
 Sum of Mulliken charges=   0.00000
 Entering OneElI...
 OneElI was handed  5867429 working-precision words.
 Multipole integrals L=0 to 4 MinM= 0 MaxM= 0.
 Requested accuracy = 0.1000D-12
 PrsmSu:  NPrtUS=   1 ThrOK=F
 PRISM was handed     4954522 working-precision words and 10618 shell-pairs
 Electronic moments (au):
  -222.00000000    -1.48115005     0.50248596    -0.64775209
-10156.18156032 -4627.48598609 -1520.92102514    -2.78157455
     5.11781847    -7.52553515 26932.01334458-14928.09082774
  -750.17849073  5538.84975441 23251.89962404   813.75332706
 -5288.78079145 -1103.60306100 -5345.64292382  4142.64052191
******************************-33891.84651810***************
-38730.38180653 50345.03287195-19465.17049353  2137.40451688
 -1881.23217763***************-69071.05211946-31699.23032149
 20112.30002383  3660.77752818 12500.72469567
 Electronic spatial extent (au):  <R**2>= 16304.5886
 Nuclear    moments (au):
   222.00000000     0.00000000     0.00000000     0.00000000
 10009.61526569  4492.71559552  1390.25704091     0.00000000
     0.00000000     0.00000000-27407.47495366 14886.08230577
   755.02604090 -5537.80723629-23150.03505896  -891.54292440
  5305.09012325  1130.51256319  5335.59279382 -4163.60027847
***************224440.87779600 28508.23339528102741.72958072
 39867.99860135-50992.91560026 19041.72996626 -2188.16020273
  1780.55068423118649.23177125 62357.88378637 28132.43200143
-20172.08901889 -3817.35970838-12549.42963154
 Total      moments (au):
     0.00000000    -1.48115005     0.50248596    -0.64775209
  -146.56629463  -134.77039057  -130.66398423    -2.78157455
     5.11781847    -7.52553515  -475.46160908   -42.00852197
     4.84755017     1.04251812   101.86456508   -77.78959734
    16.30933180    26.90950219   -10.05012999   -20.95975656
-35556.76553477-17038.83737103 -5383.61312282   285.98490208
  1137.61679483  -647.88272831  -423.44052727   -50.75568584
  -100.68149340 -9065.20870968 -6713.16833309 -3566.79832007
   -59.78899506  -156.58218020   -48.70493587
 Charge=     0.0000 electrons
 Dipole moment (field-independent basis, Debye):
    X=    -3.7647    Y=     1.2772    Z=    -1.6464  Tot=     4.3029
 Quadrupole moment (field-independent basis, Debye-Ang):
   XX=  -197.1367   YY=  -181.2708   ZZ=  -175.7475
   XY=    -3.7413   XZ=     6.8836   YZ=   -10.1221
 Traceless Quadrupole moment (field-independent basis, Debye-Ang):
   XX=   -12.4183   YY=     3.4475   ZZ=     8.9708
   XY=    -3.7413   XZ=     6.8836   YZ=   -10.1221
 Octapole moment (field-independent basis, Debye-Ang**2):
  XXX=  -338.4152  YYY=   -29.9000  ZZZ=     3.4503  XYY=     0.7420
  XXY=    72.5033  XXZ=   -55.3676  XZZ=    11.6084  YZZ=    19.1531
  YYZ=    -7.1533  XYZ=   -14.9183
 Hexadecapole moment (field-independent basis, Debye-Ang**3):
 XXXX=-13392.3818 YYYY= -6417.6427 ZZZZ= -2027.7267 XXXY=   107.7156
 XXXZ=   428.4810 YYYX=  -244.0237 YYYZ=  -159.4880 ZZZX=   -19.1170
 ZZZY=   -37.9215 XXYY= -3414.3920 XXZZ= -2528.5009 YYZZ= -1343.4272
 XXYZ=   -22.5194 YYXZ=   -58.9764 ZZXY=   -18.3446
 N-N= 2.948643561401D+03 E-N=-8.926092835904D+03  KE= 1.295264816217D+03
 Entering OneElI...
 OneElI was handed  5314129 working-precision words.
 Calculate electrostatic properties
    NBasis =   525  MinDer = 0  MaxDer = 0
    NGrid  =    61  NMatD  =   1
 Requested accuracy = 0.1000D-12
 PrsmSu:  NPrtUS=   1 ThrOK=F
 PRISM was handed     4491894 working-precision words and  9161 shell-pairs
 --------------------------------------------------------
       Center         ----      EFG at Nuclei      ----
                      3XX-RR        3YY-RR        3ZZ-RR
 --------------------------------------------------------
     1   Atom       -0.062900      0.024378      0.038522
     2   Atom       -1.728806      0.794395      0.934411
     3   Atom       -0.126144      0.095123      0.031021
     4   Atom        0.147653     -0.055617     -0.092036
     5   Atom        0.181090     -0.069792     -0.111298
     6   Atom        0.093664     -0.023612     -0.070053
     7   Atom        0.185256     -0.074741     -0.110515
     8   Atom        0.138833     -0.053227     -0.085607
     9   Atom        0.130932      0.189299     -0.320231
    10   Atom        0.166555      0.140205     -0.306760
    11   Atom        0.174712      0.111413     -0.286125
    12   Atom       -0.100282      0.274032     -0.173751
    13   Atom       -0.522946      0.338035      0.184910
    14   Atom        0.120347     -0.100404     -0.019943
    15   Atom        0.036377      0.006831     -0.043208
    16   Atom       -0.010958      0.018457     -0.007499
    17   Atom       -0.039176     -0.094578      0.133754
    18   Atom        0.439136      0.159339     -0.598475
    19   Atom       -0.137245     -0.021787      0.159032
    20   Atom       -0.047479     -0.023917      0.071396
    21   Atom       -0.134056     -0.071030      0.205086
    22   Atom       -0.079223     -0.030893      0.110116
    23   Atom       -0.110872     -0.036538      0.147410
    24   Atom       -0.056634     -0.012508      0.069142
    25   Atom        0.177554      0.117066     -0.294620
    26   Atom        0.149098      0.168083     -0.317182
    27   Atom        0.276841     -0.343386      0.066544
    28   Atom       -0.889784     -0.225808      1.115592
    29   Atom        0.084284     -0.006603     -0.077681
    30   Atom        0.047720     -0.058928      0.011208
    31   Atom        0.043100      0.000326     -0.043426
    32   Atom       -0.096320      0.032965      0.063354
    33   Atom        0.032061      0.120897     -0.152959
    34   Atom       -0.240616      0.111561      0.129056
    35   Atom        0.140941     -0.269961      0.129020
    36   Atom        0.135366      0.146074     -0.281441
    37   Atom        0.088954     -0.071482     -0.017472
    38   Atom       -0.023843      0.006607      0.017236
    39   Atom        0.090392     -0.068750     -0.021642
    40   Atom       -0.020621      0.000927      0.019694
    41   Atom        0.086469     -0.255734      0.169264
    42   Atom       -0.019915     -0.152351      0.172267
    43   Atom       -0.089163      0.031782      0.057382
    44   Atom       -0.110190     -0.024592      0.134782
    45   Atom        0.110953     -0.073040     -0.037913
    46   Atom        0.052328     -0.190589      0.138261
    47   Atom        0.038549      0.123252     -0.161801
    48   Atom        0.195168      0.137698     -0.332866
    49   Atom        0.161277      0.122347     -0.283624
    50   Atom       -0.008020     -0.103341      0.111361
    51   Atom        0.015351      0.051602     -0.066953
    52   Atom        0.158784      0.122356     -0.281141
    53   Atom        0.003444     -0.101395      0.097951
    54   Atom       -0.031827     -0.137894      0.169721
    55   Atom       -0.284853      0.149468      0.135385
    56   Atom        0.106886      0.053048     -0.159935
    57   Atom        0.088914      0.041154     -0.130068
    58   Atom       -0.293721      0.140436      0.153285
    59   Atom        0.110243      0.078411     -0.188654
    60   Atom        0.127931     -0.276199      0.148268
    61   Atom       -0.299496      0.148066      0.151430
 --------------------------------------------------------
                        XY            XZ            YZ
 --------------------------------------------------------
     1   Atom        0.221657     -0.210025      0.162837
     2   Atom        0.371962     -0.484519      0.832136
     3   Atom       -0.070531      0.068867     -0.312421
     4   Atom        0.018959     -0.002577     -0.175672
     5   Atom        0.029486      0.001308     -0.254014
     6   Atom        0.000414      0.015408     -0.205337
     7   Atom        0.001137      0.022439     -0.249252
     8   Atom        0.011734      0.009977     -0.153349
     9   Atom       -0.008578     -0.029365     -0.036119
    10   Atom       -0.013923     -0.028995     -0.019663
    11   Atom        0.005088     -0.051190     -0.043016
    12   Atom       -0.057634      0.019429     -0.050780
    13   Atom       -0.136435     -0.114615      0.754030
    14   Atom       -0.055544      0.116554      0.228533
    15   Atom       -0.017435      0.028824     -0.035768
    16   Atom        0.034138      0.022962      0.022404
    17   Atom        0.145910     -0.023760      0.067817
    18   Atom        0.956657      0.218251      0.177037
    19   Atom       -0.238910      0.057189     -0.181537
    20   Atom       -0.138895     -0.052485      0.001626
    21   Atom       -0.259017     -0.072964     -0.052302
    22   Atom       -0.172288     -0.026576     -0.050616
    23   Atom       -0.290870     -0.063693     -0.051134
    24   Atom       -0.141171     -0.050585     -0.004689
    25   Atom       -0.005601     -0.006558     -0.074579
    26   Atom       -0.007614     -0.035539     -0.034617
    27   Atom        0.022507     -0.130773     -0.367302
    28   Atom       -0.130835      0.415392     -1.000327
    29   Atom       -0.011911      0.022231      0.041632
    30   Atom        0.022090     -0.011174      0.003588
    31   Atom       -0.015322     -0.039251     -0.026916
    32   Atom       -0.168430     -0.132701     -0.082897
    33   Atom       -0.044921     -0.184730     -0.086043
    34   Atom       -0.116980      0.087858      0.037861
    35   Atom       -0.031308     -0.017453     -0.095602
    36   Atom        0.016141      0.055439     -0.048556
    37   Atom       -0.116373      0.101353      0.215020
    38   Atom        0.160569     -0.154478      0.157055
    39   Atom       -0.114266      0.098969      0.213924
    40   Atom        0.159797     -0.153116      0.166160
    41   Atom       -0.155785      0.014280      0.029649
    42   Atom        0.222760      0.002174     -0.004607
    43   Atom       -0.171809     -0.145691     -0.110525
    44   Atom        0.215164     -0.056884      0.047159
    45   Atom       -0.102147      0.098234      0.202140
    46   Atom       -0.174162      0.038524      0.072324
    47   Atom       -0.048589     -0.181043     -0.094208
    48   Atom        0.059694     -0.032221      0.165374
    49   Atom        0.023825     -0.017862      0.126417
    50   Atom        0.219059     -0.078652      0.102507
    51   Atom        0.137913      0.179178     -0.147142
    52   Atom        0.014731     -0.016266      0.124592
    53   Atom        0.220030     -0.079347      0.110837
    54   Atom        0.223290     -0.010327      0.011196
    55   Atom        0.025355      0.059977     -0.000276
    56   Atom       -0.066976      0.127667      0.171485
    57   Atom       -0.082497     -0.144201     -0.172357
    58   Atom        0.050186      0.013046     -0.003914
    59   Atom       -0.062558      0.122926      0.156053
    60   Atom        0.112704     -0.004471     -0.004765
    61   Atom        0.026321      0.005001     -0.004913
 --------------------------------------------------------


 ---------------------------------------------------------------------------------
              Nuclear Quadrupole in Principal Axis System
 ---------------------------------------------------------------------------------

       Atom             a.u.   MegaHertz   Gauss  10(-4) cm-1        Axes

              Baa    -0.4045   -54.280   -19.368   -18.106  0.6665 -0.5397  0.5143
     1 C(13)  Bbb     0.1944    26.080     9.306     8.699 -0.0553  0.6522  0.7560
              Bcc     0.2101    28.199    10.062     9.406  0.7435  0.5323 -0.4048
 
              Baa    -1.9178   138.772    49.517    46.289  0.9550 -0.1985  0.2202
     2 O(17)  Bbb     0.2149   -15.551    -5.549    -5.187  0.2946  0.7174 -0.6313
              Bcc     1.7029  -123.221   -43.968   -41.102 -0.0326  0.6678  0.7436
 
              Baa    -0.2511   -33.698   -12.024   -11.241 -0.0352  0.6655  0.7455
     3 C(13)  Bbb    -0.1446   -19.404    -6.924    -6.472  0.9820  0.1615 -0.0978
              Bcc     0.3957    53.102    18.948    17.713 -0.1855  0.7287 -0.6592
 
              Baa    -0.2507   -33.646   -12.006   -11.223 -0.0271  0.6703  0.7416
     4 C(13)  Bbb     0.0978    13.125     4.683     4.378 -0.3004  0.7021 -0.6456
              Bcc     0.1529    20.521     7.322     6.845  0.9534  0.2403 -0.1824
 
              Baa    -0.3462   -46.462   -16.579   -15.498 -0.0397  0.6784  0.7337
     5 C(13)  Bbb     0.1506    20.203     7.209     6.739 -0.5517  0.5972 -0.5821
              Bcc     0.1957    26.259     9.370     8.759  0.8331  0.4279 -0.3505
 
              Baa    -0.2539   -34.068   -12.156   -11.364 -0.0339  0.6652  0.7459
     6 C(13)  Bbb     0.0926    12.425     4.433     4.144  0.9887  0.1316 -0.0725
              Bcc     0.1613    21.643     7.723     7.219 -0.1464  0.7350 -0.6621
 
              Baa    -0.3431   -46.038   -16.428   -15.357 -0.0326  0.6803  0.7322
     7 C(13)  Bbb     0.1512    20.294     7.241     6.769  0.3852  0.6846 -0.6189
              Bcc     0.1919    25.745     9.186     8.587  0.9222 -0.2619  0.2844
 
              Baa    -0.2243   -30.093   -10.738   -10.038 -0.0420  0.6686  0.7425
     8 C(13)  Bbb     0.0847    11.367     4.056     3.792 -0.0373  0.7415 -0.6699
              Bcc     0.1396    18.727     6.682     6.246  0.9984  0.0558  0.0062
 
              Baa    -0.3247   -43.577   -15.549   -14.536  0.0655  0.0710  0.9953
     9 C(13)  Bbb     0.1322    17.739     6.330     5.917  0.9920  0.1031 -0.0726
              Bcc     0.1925    25.838     9.220     8.619 -0.1078  0.9921 -0.0637
 
              Baa    -0.3095   -41.527   -14.818   -13.852  0.0621  0.0455  0.9970
    10 C(13)  Bbb     0.1361    18.268     6.519     6.094  0.3634  0.9294 -0.0650
              Bcc     0.1733    23.259     8.299     7.758  0.9296 -0.3663 -0.0411
 
              Baa    -0.2961   -39.736   -14.179   -13.254  0.1064  0.1031  0.9890
    11 C(13)  Bbb     0.1144    15.346     5.476     5.119 -0.1557  0.9841 -0.0858
              Bcc     0.1818    24.390     8.703     8.136  0.9821  0.1449 -0.1208
 
              Baa    -0.1817   -24.381    -8.700    -8.133 -0.1722  0.0876  0.9812
    12 C(13)  Bbb    -0.1071   -14.374    -5.129    -4.795  0.9734  0.1680  0.1558
              Bcc     0.2888    38.755    13.829    12.927 -0.1511  0.9819 -0.1141
 
              Baa    -0.5441   -20.985    -7.488    -7.000  0.9848  0.1723 -0.0234
    13 N(14)  Bbb    -0.4956   -19.113    -6.820    -6.376  0.1320 -0.6530  0.7458
              Bcc     1.0397    40.098    14.308    13.375 -0.1132  0.7375  0.6658
 
              Baa    -0.3237   -43.439   -15.500   -14.490  0.2588  0.7216 -0.6422
    14 C(13)  Bbb     0.1091    14.635     5.222     4.882  0.7427 -0.5737 -0.3453
              Bcc     0.2147    28.804    10.278     9.608  0.6176  0.3876  0.6844
 
              Baa    -0.0652    -8.743    -3.120    -2.916 -0.1859  0.4007  0.8971
    15 C(13)  Bbb     0.0034     0.463     0.165     0.154  0.5996  0.7696 -0.2195
              Bcc     0.0617     8.281     2.955     2.762  0.7784 -0.4972  0.3833
 
              Baa    -0.0363    -4.877    -1.740    -1.627  0.8454 -0.3685 -0.3867
    16 C(13)  Bbb    -0.0201    -2.693    -0.961    -0.898  0.1190 -0.5758  0.8089
              Bcc     0.0564     7.570     2.701     2.525  0.5208  0.7298  0.4429
 
              Baa    -0.2280   -30.598   -10.918   -10.206 -0.6154  0.7664 -0.1841
    17 C(13)  Bbb     0.0735     9.856     3.517     3.288  0.7762  0.5485 -0.3110
              Bcc     0.1546    20.741     7.401     6.919  0.1374  0.3343  0.9324
 
              Baa    -0.6701   -25.844    -9.222    -8.621 -0.6585  0.7011  0.2736
    18 N(14)  Bbb    -0.6374   -24.582    -8.771    -8.200  0.0747 -0.3009  0.9507
              Bcc     1.3075    50.426    17.993    16.820  0.7489  0.6465  0.1458
 
              Baa    -0.3358   -45.062   -16.079   -15.031  0.7415  0.6531  0.1539
    19 C(13)  Bbb    -0.0082    -1.107    -0.395    -0.369 -0.5524  0.4640  0.6924
              Bcc     0.3441    46.169    16.474    15.400  0.3808 -0.5984  0.7049
 
              Baa    -0.1808   -24.260    -8.657    -8.092  0.7410  0.6545  0.1500
    20 C(13)  Bbb     0.0517     6.938     2.476     2.314  0.2880 -0.5115  0.8096
              Bcc     0.1291    17.323     6.181     5.778  0.6066 -0.5567 -0.5675
 
              Baa    -0.3772   -50.612   -18.060   -16.883  0.7417  0.6534  0.1516
    21 C(13)  Bbb     0.1570    21.073     7.520     7.029 -0.6374  0.7569 -0.1440
              Bcc     0.2201    29.539    10.540     9.853 -0.2089  0.0102  0.9779
 
              Baa    -0.2372   -31.834   -11.359   -10.619  0.7400  0.6552  0.1521
    22 C(13)  Bbb     0.0981    13.163     4.697     4.391 -0.5467  0.4541  0.7035
              Bcc     0.1391    18.671     6.662     6.228  0.3919 -0.6037  0.6942
 
              Baa    -0.3796   -50.935   -18.175   -16.990  0.7424  0.6523  0.1530
    23 C(13)  Bbb     0.1598    21.446     7.653     7.154 -0.0742 -0.1469  0.9864
              Bcc     0.2198    29.489    10.522     9.836 -0.6659  0.7436  0.0606
 
              Baa    -0.1843   -24.735    -8.826    -8.251  0.7601  0.6290  0.1633
    24 C(13)  Bbb     0.0590     7.915     2.824     2.640  0.2153 -0.4809  0.8499
              Bcc     0.1253    16.820     6.002     5.610  0.6131 -0.6109 -0.5009
 
              Baa    -0.3078   -41.307   -14.740   -13.779  0.0153  0.1731  0.9848
    25 C(13)  Bbb     0.1298    17.412     6.213     5.808  0.0911  0.9806 -0.1737
              Bcc     0.1781    23.895     8.526     7.971  0.9957 -0.0924  0.0008
 
              Baa    -0.3224   -43.261   -15.437   -14.430  0.0761  0.0714  0.9945
    26 C(13)  Bbb     0.1506    20.204     7.209     6.739  0.9665  0.2399 -0.0912
              Bcc     0.1718    23.057     8.227     7.691 -0.2451  0.9682 -0.0507
 
              Baa    -0.5617   -75.376   -26.896   -25.143  0.0570  0.8567  0.5127
    27 C(13)  Bbb     0.1569    21.052     7.512     7.022  0.7096 -0.3960  0.5828
              Bcc     0.4048    54.325    19.384    18.121  0.7023  0.3306 -0.6305
 
              Baa    -0.9874    71.449    25.495    23.833  0.9326 -0.2178 -0.2878
    28 O(17)  Bbb    -0.7321    52.977    18.903    17.671  0.3225  0.8609  0.3936
              Bcc     1.7196  -124.426   -44.398   -41.504  0.1620 -0.4598  0.8731
 
              Baa    -0.1003   -13.461    -4.803    -4.490 -0.1351 -0.4166  0.8990
    29 C(13)  Bbb     0.0126     1.686     0.602     0.563  0.0194  0.9060  0.4228
              Bcc     0.0877    11.775     4.202     3.928  0.9906 -0.0746  0.1144
 
              Baa    -0.0638    -8.556    -3.053    -2.854 -0.2012  0.9765 -0.0767
    30 C(13)  Bbb     0.0092     1.235     0.441     0.412  0.2125  0.1200  0.9698
              Bcc     0.0546     7.321     2.612     2.442  0.9562  0.1788 -0.2317
 
              Baa    -0.0716    -9.614    -3.430    -3.207  0.3442  0.3923  0.8530
    31 C(13)  Bbb     0.0130     1.740     0.621     0.581 -0.0543  0.9153 -0.3990
              Bcc     0.0587     7.873     2.809     2.626  0.9373 -0.0910 -0.3364
 
              Baa    -0.2827  -150.843   -53.824   -50.316  0.7547  0.5108  0.4117
    32 H(1)   Bbb     0.1317    70.259    25.070    23.436 -0.1258 -0.5033  0.8549
              Bcc     0.1510    80.584    28.754    26.880 -0.6439  0.6970  0.3155
 
              Baa    -0.2899  -154.662   -55.187   -51.590  0.5083  0.2295  0.8300
    33 H(1)   Bbb     0.1380    73.641    26.277    24.564 -0.6396  0.7460  0.1855
              Bcc     0.1519    81.020    28.910    27.026  0.5767  0.6252 -0.5260
 
              Baa    -0.2971  -158.541   -56.571   -52.884  0.9328  0.2872 -0.2178
    34 H(1)   Bbb     0.1378    73.548    26.244    24.533 -0.3590  0.6861 -0.6328
              Bcc     0.1593    84.994    30.328    28.351 -0.0323  0.6684  0.7431
 
              Baa    -0.2944  -157.080   -56.050   -52.396  0.0788  0.9717  0.2226
    35 H(1)   Bbb     0.1365    72.854    25.996    24.302  0.8136 -0.1917  0.5488
              Bcc     0.1579    84.226    30.054    28.095 -0.5760 -0.1379  0.8057
 
[...]
 **** Fit       0.003323
 **** Fit       0.003894
 **** Fit       0.004232
 **** Fit       0.004218
 **** Fit       0.003838
 **** Fit       0.003192
 **** Fit       0.002448
 **** Fit       0.000369
 **** Fit      -0.000227
 **** Fit      -0.000458
 **** Fit      -0.000240
 **** Fit       0.000473
 **** Fit       0.001641
 **** Fit       0.003043
 **** Fit       0.004175
 **** Fit       0.003126
 **** Fit       0.001980
 **** Fit       0.001042
 **** Fit       0.000429
 **** Fit       0.000153
 **** Fit       0.000192
 **** Fit       0.000525
 **** Fit       0.001119
 **** Fit       0.001910
 **** Fit       0.002784
 **** Fit       0.003575
 **** Fit       0.004102
 **** Fit       0.004221
 **** Fit       0.003885
 **** Fit       0.003165
 **** Fit       0.002217
 **** Fit       0.001229
 **** Fit      -0.001397
 **** Fit      -0.002195
 **** Fit       0.000203
 **** Fit      -0.000887
 **** Fit      -0.001548
 **** Fit      -0.001843
 **** Fit      -0.001822
 **** Fit      -0.001509
 **** Fit      -0.000911
 **** Fit      -0.000050
 **** Fit       0.001017
 **** Fit       0.002173
 **** Fit       0.003245
 **** Fit       0.004025
 **** Fit       0.004331
 **** Fit       0.004081
 **** Fit       0.003323
 **** Fit       0.002207
 **** Fit       0.000929
 **** Fit      -0.000321
 **** Fit      -0.004257
 **** Fit      -0.003903
 **** Fit      -0.003235
 **** Fit      -0.002236
 **** Fit      -0.000924
 **** Fit       0.000620
 **** Fit       0.002229
 **** Fit       0.003640
 **** Fit       0.004544
 **** Fit       0.004708
 **** Fit       0.004089
 **** Fit       0.002838
 **** Fit       0.001207
 **** Fit       0.003362
 **** Fit       0.003884
 **** Fit       0.004353
 **** Fit       0.004378
 **** Fit       0.001068
 **** Fit       0.001694
 **** Fit       0.002621
 **** Fit       0.003540
 **** Fit       0.004158
 **** Fit       0.004256
 **** Fit       0.003728
 **** Fit      -0.001436
 **** Fit      -0.000504
 **** Fit       0.000676
 **** Fit       0.001980
 **** Fit       0.003209
 **** Fit       0.004136
 **** Fit       0.004591
 **** Fit       0.004379
 **** Fit       0.003331
 **** Fit      -0.004557
 **** Fit      -0.003545
 **** Fit      -0.002326
 **** Fit      -0.000865
 **** Fit       0.000799
 **** Fit       0.002486
 **** Fit       0.003934
 **** Fit      -0.007920
 **** Fit      -0.006980
 **** Fit      -0.005959
 **** Fit      -0.004695
 **** Fit      -0.003045
 **** Fit      -0.001001
 **** Fit       0.001248
 **** Fit       0.003375
 **** Fit      -0.016268
 **** Fit      -0.015952
 **** Fit      -0.015308
 **** Fit      -0.014553
 **** Fit      -0.014331
 **** Fit      -0.012450
 **** Fit      -0.011360
 **** Fit      -0.009760
 **** Fit      -0.007577
 **** Fit      -0.009232
 **** Fit      -0.006031
 **** Fit      -0.007689
 **** Fit      -0.004102
 **** Fit      -0.002615
 **** Fit       0.000088
 **** Fit       0.003049
 **** Fit       0.003526
 **** Fit       0.004233
 **** Fit       0.005058
 **** Fit       0.002014
 **** Fit       0.001968
 **** Fit       0.002286
 **** Fit       0.002949
 **** Fit       0.003785
 **** Fit       0.004624
 **** Fit       0.005425
 **** Fit       0.001411
 **** Fit       0.000748
 **** Fit       0.000541
 **** Fit       0.000917
 **** Fit       0.001764
 **** Fit       0.002829
 **** Fit       0.003861
 **** Fit       0.004711
 **** Fit       0.001144
 **** Fit      -0.000355
 **** Fit      -0.001370
 **** Fit      -0.001640
 **** Fit      -0.001136
 **** Fit      -0.000014
 **** Fit       0.001424
 **** Fit       0.002850
 **** Fit       0.004022
 **** Fit       0.004817
 **** Fit       0.001959
 **** Fit      -0.000727
 **** Fit      -0.003056
 **** Fit      -0.004509
 **** Fit       0.003343
 **** Fit       0.004596
 **** Fit       0.004012
 **** Fit       0.003191
 **** Fit       0.004059
 **** Fit       0.004813
 **** Fit       0.004593
 **** Fit       0.004000
 **** Fit       0.003342
 **** Fit       0.002149
 **** Fit       0.002761
 **** Fit       0.005411
 **** Fit       0.004950
 **** Fit       0.004498
 **** Fit       0.003972
 **** Fit       0.003356
 **** Fit       0.002722
 **** Fit       0.002237
 **** Fit       0.000935
 **** Fit       0.001239
 **** Fit       0.005555
 **** Fit       0.005120
 **** Fit       0.004753
 **** Fit       0.004360
 **** Fit       0.003896
 **** Fit       0.003349
 **** Fit       0.002737
 **** Fit       0.002104
 **** Fit       0.001521
 **** Fit       0.001088
 **** Fit      -0.000380
 **** Fit      -0.000333
 **** Fit       0.005783
 **** Fit       0.005328
 **** Fit       0.004995
 **** Fit       0.004683
 **** Fit       0.004331
 **** Fit       0.003912
 **** Fit       0.003417
 **** Fit       0.002851
 **** Fit       0.002227
 **** Fit       0.001570
 **** Fit       0.000921
 **** Fit       0.000332
 **** Fit      -0.000127
 **** Fit      -0.001716
 **** Fit       0.005648
 **** Fit       0.005257
 **** Fit       0.004966
 **** Fit       0.004689
 **** Fit       0.004374
 **** Fit       0.003996
 **** Fit       0.003549
 **** Fit       0.003032
 **** Fit       0.002450
 **** Fit       0.001811
 **** Fit       0.001131
 **** Fit       0.000434
 **** Fit      -0.000244
 **** Fit      -0.000861
 **** Fit      -0.001368
 **** Fit       0.005507
 **** Fit       0.005157
 **** Fit       0.004900
 **** Fit       0.004653
 **** Fit       0.004365
 **** Fit       0.004014
 **** Fit       0.003599
 **** Fit       0.003122
 **** Fit       0.002587
 **** Fit       0.001995
 **** Fit       0.001353
 **** Fit       0.000668
 **** Fit      -0.000042
 **** Fit      -0.000753
 **** Fit      -0.001435
 **** Fit       0.005084
 **** Fit       0.004836
 **** Fit       0.004601
 **** Fit       0.004306
 **** Fit       0.003936
 **** Fit       0.003496
 **** Fit       0.002996
 **** Fit       0.002442
 **** Fit       0.001836
 **** Fit       0.001180
 **** Fit       0.000477
 **** Fit      -0.000262
 **** Fit      -0.001018
 **** Fit       0.004838
 **** Fit       0.004621
 **** Fit       0.004318
 **** Fit       0.003918
 **** Fit       0.003441
 **** Fit       0.002906
 **** Fit       0.002324
 **** Fit       0.001697
 **** Fit       0.001027
 **** Fit       0.000314
 **** Fit      -0.000437
 **** Fit       0.003733
 **** Fit       0.003147
 **** Fit       0.002515
 **** Fit       0.001846
 **** Fit       0.005219
 **** Fit       0.004281
 **** Fit       0.003335
 **** Fit       0.002383
 **** Fit       0.007912
 **** Fit       0.006722
 **** Fit       0.005546
 **** Fit       0.004431
 **** Fit       0.003365
 **** Fit       0.002318
 **** Fit       0.001261
 **** Fit       0.000173
 **** Fit       0.009175
 **** Fit       0.007545
 **** Fit       0.006116
 **** Fit       0.004840
 **** Fit       0.003658
 **** Fit       0.002515
 **** Fit       0.001369
 **** Fit       0.000191
 **** Fit      -0.001040
 **** Fit       0.009619
 **** Fit       0.007660
 **** Fit       0.006049
 **** Fit       0.004641
 **** Fit       0.003336
 **** Fit       0.002060
 **** Fit       0.000762
 **** Fit      -0.000594
 **** Fit      -0.002033
 **** Fit       0.008009
 **** Fit       0.006176
 **** Fit       0.004603
 **** Fit       0.003144
 **** Fit       0.001705
 **** Fit       0.000222
 **** Fit      -0.001357
 **** Fit      -0.003075
 **** Fit       0.007969
 **** Fit       0.006007
 **** Fit       0.004314
 **** Fit       0.002723
 **** Fit       0.001127
 **** Fit      -0.000552
 **** Fit      -0.002384
 **** Fit      -0.004449
 **** Fit       0.009317
 **** Fit       0.006830
 **** Fit       0.004805
 **** Fit       0.002960
 **** Fit       0.001124
 **** Fit      -0.000823
 **** Fit      -0.002992
 **** Fit      -0.005522
 **** Fit       0.007572
 **** Fit       0.005204
 **** Fit       0.003101
 **** Fit       0.001026
 **** Fit      -0.001189
 **** Fit      -0.003698
 **** Fit      -0.006692
 **** Fit       0.006249
 **** Fit       0.003757
 **** Fit       0.001371
 **** Fit      -0.001144
 **** Fit      -0.003971
 **** Fit      -0.007255
 **** Fit      -0.006353
 **** Fit       0.005306
 **** Fit       0.002439
 **** Fit      -0.000483
 **** Fit      -0.003554
 **** Fit      -0.002070
 **** Fit       0.003851
 **** Fit       0.000487
 **** Fit       0.001862
 **** Fit      -0.005046
 **** Fit      -0.005433
 **** Fit      -0.003994
 **** Fit      -0.004521
 **** Fit      -0.005998
 **** Fit      -0.006606
 **** Fit      -0.003608
 **** Fit      -0.004077
 **** Fit      -0.004632
 **** Fit      -0.005290
 **** Fit      -0.007242
 **** Fit      -0.008196
 **** Fit      -0.003747
 **** Fit      -0.004189
 **** Fit      -0.004736
 **** Fit      -0.005430
 **** Fit      -0.006278
 **** Fit      -0.008850
 **** Fit      -0.010336
 **** Fit      -0.011741
 **** Fit      -0.003805
 **** Fit      -0.004238
 **** Fit      -0.004771
 **** Fit      -0.005465
 **** Fit      -0.006367
 **** Fit      -0.007500
 **** Fit      -0.010868
 **** Fit      -0.013007
 **** Fit      -0.015388
 **** Fit      -0.004360
 **** Fit      -0.004886
 **** Fit      -0.005558
 **** Fit      -0.006443
 **** Fit      -0.007595
 **** Fit      -0.009061
 **** Fit      -0.013324
 **** Fit      -0.016283
 **** Fit      -0.019894
 **** Fit      -0.004457
 **** Fit      -0.005005
 **** Fit      -0.005664
 **** Fit      -0.006511
 **** Fit      -0.007623
 **** Fit      -0.009077
 **** Fit      -0.010950
 **** Fit      -0.016221
 **** Fit      -0.020327
 **** Fit      -0.025703
 **** Fit      -0.005623
 **** Fit      -0.006440
 **** Fit      -0.007484
 **** Fit      -0.008860
 **** Fit      -0.010681
 **** Fit      -0.013079
 **** Fit      -0.019525
 **** Fit      -0.025128
 **** Fit      -0.006228
 **** Fit      -0.007235
 **** Fit      -0.008500
 **** Fit      -0.010169
 **** Fit      -0.012410
 **** Fit      -0.015431
 **** Fit      -0.023136
 **** Fit      -0.006911
 **** Fit      -0.008151
 **** Fit      -0.009665
 **** Fit      -0.011651
 **** Fit      -0.014334
 **** Fit      -0.018015
 **** Fit      -0.008616
 **** Fit      -0.010413
 **** Fit      -0.012725
 **** Fit      -0.015891
 **** Fit      -0.020363
 **** Fit      -0.011005
 **** Fit      -0.013650
 **** Fit      -0.017259
 **** Fit      -0.022465
 **** Fit      -0.017813
 **** Fit       0.002043
 **** Fit       0.001426
 **** Fit       0.001351
 **** Fit       0.001884
 **** Fit       0.002523
 **** Fit       0.002672
 **** Fit       0.002104
 **** Fit       0.000676
 **** Fit       0.000452
 **** Fit       0.000598
 **** Fit       0.001035
 **** Fit       0.001641
 **** Fit       0.002290
 **** Fit       0.002868
 **** Fit       0.003239
 **** Fit       0.003248
 **** Fit       0.002816
 **** Fit       0.002059
 **** Fit       0.001258
 **** Fit      -0.000196
 **** Fit      -0.000445
 **** Fit      -0.000438
 **** Fit      -0.000204
 **** Fit       0.000210
 **** Fit       0.000744
 **** Fit       0.001337
 **** Fit       0.001944
 **** Fit       0.002537
 **** Fit       0.003087
 **** Fit       0.003538
 **** Fit       0.003804
 **** Fit       0.003795
 **** Fit       0.003444
 **** Fit       0.002773
 **** Fit       0.001912
 **** Fit       0.001043
 **** Fit       0.000311
 **** Fit      -0.001166
 **** Fit      -0.001413
 **** Fit      -0.001451
 **** Fit      -0.001294
 **** Fit      -0.000968
 **** Fit      -0.000510
 **** Fit       0.000034
 **** Fit       0.000619
 **** Fit       0.001208
 **** Fit       0.001784
 **** Fit       0.002352
 **** Fit       0.002918
 **** Fit       0.003461
 **** Fit       0.003932
 **** Fit       0.004263
 **** Fit       0.004378
 **** Fit       0.004199
 **** Fit       0.003672
 **** Fit       0.002836
 **** Fit       0.001838
 **** Fit       0.000846
 **** Fit      -0.000022
 **** Fit      -0.000701
 **** Fit      -0.002195
 **** Fit       0.000136
 **** Fit       0.000725
 **** Fit       0.001277
 **** Fit       0.001808
 **** Fit       0.002349
 **** Fit       0.002920
 **** Fit       0.003509
 **** Fit       0.004070
 **** Fit       0.004544
 **** Fit       0.004877
 **** Fit       0.004996
 **** Fit       0.004795
 **** Fit       0.004169
 **** Fit       0.003151
 **** Fit       0.001939
 **** Fit       0.000749
 **** Fit      -0.000291
 **** Fit      -0.001137
 **** Fit      -0.001770
 **** Fit       0.001351
 **** Fit       0.001805
 **** Fit       0.002303
 **** Fit       0.002873
 **** Fit       0.003501
 **** Fit       0.004135
 **** Fit       0.004723
 **** Fit       0.005232
 **** Fit       0.005640
 **** Fit       0.000660
 **** Fit      -0.000569
 **** Fit      -0.001555
 **** Fit       0.002213
 **** Fit       0.002811
 **** Fit       0.003514
 **** Fit       0.004251
 **** Fit       0.004958
 **** Fit       0.005618
 **** Fit       0.003629
 **** Fit       0.004464
 **** Fit       0.005257
 **** Fit       0.006005
 **** Fit      -0.000400
 **** Fit       0.000163
 **** Fit      -0.001930
 **** Fit      -0.001128
 **** Fit      -0.000370
 **** Fit       0.000314
 **** Fit       0.000858
 **** Fit       0.001165
 **** Fit      -0.002728
 **** Fit      -0.001850
 **** Fit      -0.001013
 **** Fit      -0.000221
 **** Fit       0.000544
 **** Fit       0.001258
 **** Fit       0.001793
 **** Fit       0.001993
 **** Fit       0.001851
 **** Fit      -0.002692
 **** Fit      -0.001786
 **** Fit      -0.000960
 **** Fit      -0.000186
 **** Fit       0.000607
 **** Fit       0.001464
 **** Fit       0.002297
 **** Fit       0.002859
 **** Fit       0.002925
 **** Fit       0.002544
 **** Fit      -0.003350
 **** Fit      -0.002310
 **** Fit      -0.001406
 **** Fit      -0.000623
 **** Fit       0.000133
 **** Fit       0.001013
 **** Fit       0.002118
 **** Fit       0.003302
 **** Fit       0.004102
 **** Fit       0.004091
 **** Fit       0.003370
 **** Fit      -0.004136
 **** Fit      -0.002906
 **** Fit      -0.001866
 **** Fit      -0.001030
 **** Fit      -0.000330
 **** Fit       0.000401
 **** Fit       0.001420
 **** Fit       0.002919
 **** Fit       0.004294
 **** Fit      -0.004861
 **** Fit      -0.003350
 **** Fit      -0.002094
 **** Fit      -0.001117
 **** Fit      -0.000370
 **** Fit       0.000301
 **** Fit       0.001200
 **** Fit      -0.007340
 **** Fit      -0.005122
 **** Fit      -0.003219
 **** Fit      -0.001677
 **** Fit      -0.000483
 **** Fit       0.000446
 **** Fit       0.001326
 **** Fit      -0.007683
 **** Fit      -0.004783
 **** Fit      -0.002384
 **** Fit      -0.000435
 **** Fit       0.001183
 **** Fit      -0.007535
 **** Fit      -0.003860
 **** Fit      -0.000841
 **** Fit      -0.005182
 **** Fit      -0.000704
 **** Fit      -0.003964
 **** Fit      -0.004451
 **** Fit      -0.004519
 **** Fit      -0.004546
 **** Fit      -0.004137
 **** Fit      -0.004332
 **** Fit      -0.005103
 **** Fit      -0.005151
 **** Fit      -0.005163
 **** Fit      -0.005136
 **** Fit      -0.004195
 **** Fit      -0.004576
 **** Fit      -0.004839
 **** Fit      -0.005007
 **** Fit      -0.006044
 **** Fit      -0.006062
 **** Fit      -0.006040
 **** Fit      -0.005982
 **** Fit      -0.005878
 **** Fit      -0.005700
 **** Fit      -0.004685
 **** Fit      -0.005158
 **** Fit      -0.005540
 **** Fit      -0.005807
 **** Fit      -0.005968
 **** Fit      -0.007406
 **** Fit      -0.007379
 **** Fit      -0.007294
 **** Fit      -0.007165
 **** Fit      -0.006986
 **** Fit      -0.006735
 **** Fit      -0.005670
 **** Fit      -0.006324
 **** Fit      -0.006836
 **** Fit      -0.007171
 **** Fit      -0.007349
 **** Fit      -0.009346
 **** Fit      -0.009250
 **** Fit      -0.009075
 **** Fit      -0.008839
 **** Fit      -0.008545
 **** Fit      -0.008176
 **** Fit      -0.007692
 **** Fit      -0.008035
 **** Fit      -0.008735
 **** Fit      -0.009146
 **** Fit      -0.009328
 **** Fit      -0.012080
 **** Fit      -0.011871
 **** Fit      -0.011556
 **** Fit      -0.011159
 **** Fit      -0.010686
 **** Fit      -0.010124
 **** Fit      -0.009433
 **** Fit      -0.010504
 **** Fit      -0.011467
 **** Fit      -0.011965
 **** Fit      -0.012135
 **** Fit      -0.015916
 **** Fit      -0.015509
 **** Fit      -0.014955
 **** Fit      -0.014287
 **** Fit      -0.013511
 **** Fit      -0.012605
 **** Fit      -0.011521
 **** Fit      -0.015358
 **** Fit      -0.015984
 **** Fit      -0.016112
 **** Fit      -0.021342
 **** Fit      -0.020582
 **** Fit      -0.019630
 **** Fit      -0.018524
 **** Fit      -0.017261
 **** Fit      -0.015801
 **** Fit      -0.014066
 **** Fit      -0.021115
 **** Fit      -0.021843
 **** Fit      -0.021818
 **** Fit      -0.022483
 **** Fit      -0.020215
 -----------------------------------------------------------------
 Leave Link  602 at Wed Sep 23 22:21:10 2015, MaxMem=    6291456 cpu:      16.1

 Test job not archived.
 1\1\GINC-COMPUTE-2-11\FOpt\RHF\6-31G(d)\C27H30N2O2\SHUNZHOU\23-Sep-201
 5\0\\#HF/6-31G* SCF=tight Test Pop=MK iop(6/33=2) iop(6/42=6) opt\\rem
 ark line goes here\\0,1\C,17.2164342608,-5.4070446637,12.0839305136\O,
 16.0992747891,-4.7810742858,12.6467057447\C,15.7679799947,-3.532221825
 7,12.2612412457\C,14.6324231936,-2.9909913363,12.8586562161\C,14.21368
 31406,-1.7218519264,12.52985788\C,14.9060220387,-0.9434891685,11.59807
 68955\C,16.0333359657,-1.499895786,11.0145780466\C,16.4695114964,-2.77
 96098344,11.3340732483\C,14.4474990425,0.4300878606,11.2496781579\C,14
 .0310109955,1.3162682363,12.2375958194\C,13.6126709082,2.5963689389,11
 .9172130633\C,13.5671238264,3.0007439451,10.5936756433\N,13.1675072134
 ,4.3006309257,10.1888591217\C,14.0832527236,5.032048292,9.2892847885\C
 ,15.0682328464,5.8933390961,10.0745262713\C,14.8014431604,4.058366054,
 8.3315383048\C,14.0525632958,2.7264520775,8.1941618389\N,14.7040233425
 ,1.875635383,7.2202117234\C,13.9871778374,1.0330312486,6.3724456253\C,
 14.5435528264,0.6623664465,5.1458605677\C,13.8727958622,-0.1956749122,
 4.2976434534\C,12.629549997,-0.7062840751,4.6417867843\C,12.0776380075
 ,-0.3436327689,5.8566320952\C,12.7424039222,0.5130280183,6.7205365876\
 C,14.0051149554,2.1378359188,9.592714216\C,14.4429690967,0.869783323,9
 .9263294864\C,12.0050646118,4.9329020128,10.5443361145\O,11.8348025033
 ,6.0943988038,10.2775777281\C,10.8759093694,4.1484881793,11.208753552\
 C,10.5019564942,4.8051990211,12.541856003\C,9.6795838124,4.1377646233,
 10.245978899\H,13.4505791555,5.6806015761,8.7054497339\H,13.037516338,
 2.9430972035,7.8684400254\H,17.2726954845,-6.386462273,12.5347447739\H
 ,17.1112336587,-5.5148848891,11.0094772217\H,18.1287816874,-4.86194461
 7,12.3024405366\H,14.0912941891,-3.5877812759,13.5691644397\H,13.32226
 43352,-1.332916043,12.9884526323\H,16.6031477161,-0.9262617921,10.3059
 174091\H,17.3518623531,-3.1624169076,10.859237224\H,14.0681704834,1.02
 09656602,13.2704678309\H,13.3342918478,3.2812225413,12.6971468026\H,15
 .6758499448,5.2801960384,10.7333974054\H,14.5359524411,6.6254240563,10
 .6680359709\H,15.7336441087,6.4212379204,9.3968684306\H,14.9006195059,
 4.5370496168,7.3614854675\H,15.8041451128,3.8433231724,8.6904470674\H,
 15.4821414914,2.3066793839,6.7732143798\H,15.50656344,1.0519214924,4.8
 616690655\H,14.323281793,-0.4631726854,3.3579541672\H,12.1078954006,-1
 .3719074808,3.9786699924\H,11.1176480514,-0.7325131631,6.1475237332\H,
 12.2978625403,0.7566270928,7.6669037297\H,14.7695352221,0.2132772537,9
 .1431469128\H,11.171046305,3.1258981713,11.3881942839\H,9.6759966025,4
 .2724374271,13.002149655\H,11.3322992643,4.7973455939,13.2418380023\H,
 10.2057586847,5.8350373275,12.3864514034\H,8.8561965414,3.5835677825,1
 0.6851420984\H,9.934286781,3.6617854886,9.3036164634\H,9.3469279902,5.
 1465985059,10.0370375056\\Version=AM64L-G03RevD.02\State=1-A\HF=-1298.
 5560986\RMSD=9.769e-09\RMSF=4.331e-06\Thermal=0.\Dipole=1.0346731,-0.9
 57684,-0.2468825\PG=C01 [X(C27H30N2O2)]\\@


 SCIENCE IS LONG AND LIFE IS SHORT.

                     DON MOSER IN THE FEBRUARY 1979 SMITHSONIAN
 Job cpu time:  0 days  6 hours 13 minutes 33.2 seconds.
 File lengths (MBytes):  RWF=    182 Int=      0 D2E=      0 Chk=     26 Scr=      1
 Normal termination of Gaussian 03 at Wed Sep 23 22:21:10 2015.
