 Entering Gaussian System, Link 0=g03
 Initial command:
 /share/apps//g03/l1.exe /state/partition1/mmpbsa.P25741/Gau-25748.inp -scrdir=/state/partition1/mmpbsa.P25741/
 Entering Link 1 = /share/apps//g03/l1.exe PID=     25749.
  
 Copyright (c) 1988,1990,1992,1993,1995,1998,2003,2004, Gaussian, Inc.
                  All Rights Reserved.
  
 This is the Gaussian(R) 03 program.  It is based on the
 the Gaussian(R) 98 system (copyright 1998, Gaussian, Inc.),
 the Gaussian(R) 94 system (copyright 1995, Gaussian, Inc.),
 the Gaussian 92(TM) system (copyright 1992, Gaussian, Inc.),
 the Gaussian 90(TM) system (copyright 1990, Gaussian, Inc.),
 the Gaussian 88(TM) system (copyright 1988, Gaussian, Inc.),
 the Gaussian 86(TM) system (copyright 1986, Carnegie Mellon
 University), and the Gaussian 82(TM) system (copyright 1983,
 Carnegie Mellon University). Gaussian is a federally registered
 trademark of Gaussian, Inc.
  
 This software contains proprietary and confidential information,
 including trade secrets, belonging to Gaussian, Inc.
  
 This software is provided under written license and may be
 used, copied, transmitted, or stored only in accord with that
 written license.
  
 The following legend is applicable only to US Government
 contracts under FAR:
  
                    RESTRICTED RIGHTS LEGEND
  
 Use, reproduction and disclosure by the US Government is
 subject to restrictions as set forth in subparagraphs (a)
 and (c) of the Commercial Computer Software - Restricted
 Rights clause in FAR 52.227-19.
  
 Gaussian, Inc.
 340 Quinnipiac St., Bldg. 40, Wallingford CT 06492
  
  
 ---------------------------------------------------------------
 Warning -- This program may not be used in any manner that
 competes with the business of Gaussian, Inc. or will provide
 assistance to any competitor of Gaussian, Inc.  The licensee
 of this program is prohibited from giving any competitor of
 Gaussian, Inc. access to this program.  By using this program,
 the user acknowledges that Gaussian, Inc. is engaged in the
 business of creating and licensing software in the field of
 computational chemistry and represents and warrants to the
 licensee that it is not a competitor of Gaussian, Inc. and that
 it will not use this program in any manner prohibited above.
 ---------------------------------------------------------------
  

 Cite this work as:
 Gaussian 03, Revision D.02,
 M. J. Frisch, G. W. Trucks, H. B. Schlegel, G. E. Scuseria, 
 M. A. Robb, J. R. Cheeseman, J. A. Montgomery, Jr., T. Vreven, 
 K. N. Kudin, J. C. Burant, J. M. Millam, S. S. Iyengar, J. Tomasi, 
 V. Barone, B. Mennucci, M. Cossi, G. Scalmani, N. Rega, 
 G. A. Petersson, H. Nakatsuji, M. Hada, M. Ehara, K. Toyota, 
 R. Fukuda, J. Hasegawa, M. Ishida, T. Nakajima, Y. Honda, O. Kitao, 
 H. Nakai, M. Klene, X. Li, J. E. Knox, H. P. Hratchian, J. B. Cross, 
 V. Bakken, C. Adamo, J. Jaramillo, R. Gomperts, R. E. Stratmann, 
 O. Yazyev, A. J. Austin, R. Cammi, C. Pomelli, J. W. Ochterski, 
 P. Y. Ayala, K. Morokuma, G. A. Voth, P. Salvador, J. J. Dannenberg, 
 V. G. Zakrzewski, S. Dapprich, A. D. Daniels, M. C. Strain, 
 O. Farkas, D. K. Malick, A. D. Rabuck, K. Raghavachari, 
 J. B. Foresman, J. V. Ortiz, Q. Cui, A. G. Baboul, S. Clifford, 
 J. Cioslowski, B. B. Stefanov, G. Liu, A. Liashenko, P. Piskorz, 
 I. Komaromi, R. L. Martin, D. J. Fox, T. Keith, M. A. Al-Laham, 
 C. Y. Peng, A. Nanayakkara, M. Challacombe, P. M. W. Gill, 
 B. Johnson, W. Chen, M. W. Wong, C. Gonzalez, and J. A. Pople, 
 Gaussian, Inc., Wallingford CT, 2004.
 
 ******************************************
 Gaussian 03:  AM64L-G03RevD.02  1-Mar-2006
                24-Sep-2015 
 ******************************************
 %chk=molecule
 ------------------------------------------------------------
 #HF/6-31G* SCF=tight Test Pop=MK iop(6/33=2) iop(6/42=6) opt
 ------------------------------------------------------------
 1/18=20,38=1/1,3;
 2/9=110,17=6,18=5,40=1/2;
 3/5=1,6=6,7=1,11=9,16=1,25=1,30=1/1,2,3;
 4//1;
 5/5=2,32=2,38=5/2;
 6/7=2,8=2,9=2,10=2,15=8,20=1,28=1,33=2,42=6/1,2;
 7//1,2,3,16;
 1/18=20/3(3);
 2/9=110/2;
 6/7=2,8=2,9=2,10=2,15=8,19=2,20=1,28=1,33=2,42=6/1,2;
 99//99;
 2/9=110/2;
 3/5=1,6=6,7=1,11=9,16=1,25=1,30=1/1,2,3;
 4/5=5,16=3/1;
 5/5=2,32=2,38=5/2;
 7//1,2,3,16;
 1/18=20/3(-5);
 2/9=110/2;
 6/7=2,8=2,9=2,10=2,15=8,19=2,20=1,28=1,33=2,42=6/1,2;
 99/9=1/99;
 ---------------------
 remark line goes here
 ---------------------
 Symbolic Z-matrix:
 Charge = -1 Multiplicity = 1
 C                     15.032    6.024     10.004 
 C                     14.009    5.152     9.257 
 C                     14.653    4.27      8.186 
 C                     14.       2.907     8.141 
 N                     14.563    2.019     7.142 
 C                     13.841    1.032     6.488 
 C                     14.255    0.576     5.257 
 C                     13.571   -0.426     4.615 
 C                     12.505   -0.994     5.23 
 Cl                    11.663   -2.302     4.428 
 C                     12.091   -0.576     6.444 
 C                     12.77     0.432     7.084 
 C                     13.978    2.301     9.521 
 C                     14.505    1.059     9.842 
 C                     14.441    0.582     11.144 
 C                     13.966    1.425     12.13 
 C                     13.505    2.682     11.843 
 C                     13.519    3.127     10.544 
 N                     13.106    4.441     10.193 
 C                     11.996    5.049     10.643 
 C                     11.118    4.282     11.583 
 O                     11.747    6.162     10.329 
 C                     14.937   -0.758     11.512 
 C                     14.428   -1.402     12.613 
 C                     14.888   -2.639     13.001 
 C                     15.878   -3.279     12.289 
 C                     16.407   -2.636     11.185 
 C                     15.943   -1.387     10.808 
 C                     16.382   -4.618     12.712 
 O                     17.386   -5.035     12.23 
 O                     15.723   -5.252     13.601 
 H                     14.518    6.628     10.752 
 H                     15.765    5.385     10.496 
 H                     15.539    6.678     9.295 
 H                     13.373    5.851     8.714 
 H                     15.716    4.156     8.4 
 H                     14.556    4.751     7.213 
 H                     12.96     3.071     7.858 
 H                     15.542    2.152     6.932 
 H                     15.126    1.007     4.787 
 H                     13.884   -0.751     3.634 
 H                     11.23    -1.034     6.908 
 H                     12.451    0.749     8.066 
 H                     14.97     0.455     9.076 
 H                     13.952    1.098     13.159 
 H                     13.134    3.315     12.635 
 H                     10.261    4.895     11.863 
 H                     10.769    3.372     11.094 
 H                     11.684    4.019     12.477 
 H                     13.648   -0.938     13.197 
 H                     14.472   -3.12      13.874 
 H                     17.189   -3.108     10.608 
 H                     16.382   -0.905     9.947 
 

 GradGradGradGradGradGradGradGradGradGradGradGradGradGradGradGradGradGrad
 Berny optimization.
 Initialization pass.
                           ----------------------------
                           !    Initial Parameters    !
                           ! (Angstroms and Degrees)  !
 --------------------------                            --------------------------
 ! Name  Definition              Value          Derivative Info.                !
 --------------------------------------------------------------------------------
 ! R1    R(1,2)                  1.5378         estimate D2E/DX2                !
 ! R2    R(1,32)                 1.0902         estimate D2E/DX2                !
 ! R3    R(1,33)                 1.0898         estimate D2E/DX2                !
 ! R4    R(1,34)                 1.0897         estimate D2E/DX2                !
 ! R5    R(2,3)                  1.5296         estimate D2E/DX2                !
 ! R6    R(2,19)                 1.4822         estimate D2E/DX2                !
 ! R7    R(2,35)                 1.0899         estimate D2E/DX2                !
 ! R8    R(3,4)                  1.512          estimate D2E/DX2                !
 ! R9    R(3,36)                 1.0903         estimate D2E/DX2                !
 ! R10   R(3,37)                 1.0897         estimate D2E/DX2                !
 ! R11   R(4,5)                  1.4503         estimate D2E/DX2                !
 ! R12   R(4,13)                 1.5074         estimate D2E/DX2                !
 ! R13   R(4,38)                 1.0902         estimate D2E/DX2                !
 ! R14   R(5,6)                  1.3868         estimate D2E/DX2                !
 ! R15   R(5,39)                 1.0101         estimate D2E/DX2                !
 ! R16   R(6,7)                  1.3765         estimate D2E/DX2                !
 ! R17   R(6,12)                 1.3646         estimate D2E/DX2                !
 ! R18   R(7,8)                  1.3726         estimate D2E/DX2                !
 ! R19   R(7,40)                 1.0795         estimate D2E/DX2                !
 ! R20   R(8,9)                  1.3554         estimate D2E/DX2                !
 ! R21   R(8,41)                 1.0798         estimate D2E/DX2                !
 ! R22   R(9,10)                 1.7502         estimate D2E/DX2                !
 ! R23   R(9,11)                 1.349          estimate D2E/DX2                !
 ! R24   R(11,12)                1.3736         estimate D2E/DX2                !
 ! R25   R(11,42)                1.08           estimate D2E/DX2                !
 ! R26   R(12,43)                1.0801         estimate D2E/DX2                !
 ! R27   R(13,14)                1.3868         estimate D2E/DX2                !
 ! R28   R(13,18)                1.3927         estimate D2E/DX2                !
 ! R29   R(14,15)                1.3881         estimate D2E/DX2                !
 ! R30   R(14,44)                1.0806         estimate D2E/DX2                !
 ! R31   R(15,16)                1.3815         estimate D2E/DX2                !
 ! R32   R(15,23)                1.4755         estimate D2E/DX2                !
 ! R33   R(16,17)                1.3693         estimate D2E/DX2                !
 ! R34   R(16,45)                1.0798         estimate D2E/DX2                !
 ! R35   R(17,18)                1.3732         estimate D2E/DX2                !
 ! R36   R(17,46)                1.0796         estimate D2E/DX2                !
 ! R37   R(18,19)                1.4214         estimate D2E/DX2                !
 ! R38   R(19,20)                1.3432         estimate D2E/DX2                !
 ! R39   R(20,21)                1.4976         estimate D2E/DX2                !
 ! R40   R(20,22)                1.1829         estimate D2E/DX2                !
 ! R41   R(21,47)                1.0902         estimate D2E/DX2                !
 ! R42   R(21,48)                1.0904         estimate D2E/DX2                !
 ! R43   R(21,49)                1.0903         estimate D2E/DX2                !
 ! R44   R(23,24)                1.3733         estimate D2E/DX2                !
 ! R45   R(23,28)                1.3796         estimate D2E/DX2                !
 ! R46   R(24,25)                1.3756         estimate D2E/DX2                !
 ! R47   R(24,50)                1.0792         estimate D2E/DX2                !
 ! R48   R(25,26)                1.3772         estimate D2E/DX2                !
 ! R49   R(25,51)                1.0801         estimate D2E/DX2                !
 ! R50   R(26,27)                1.3828         estimate D2E/DX2                !
 ! R51   R(26,29)                1.4919         estimate D2E/DX2                !
 ! R52   R(27,28)                1.3847         estimate D2E/DX2                !
 ! R53   R(27,52)                1.0804         estimate D2E/DX2                !
 ! R54   R(28,53)                1.08           estimate D2E/DX2                !
 ! R55   R(29,30)                1.1892         estimate D2E/DX2                !
 ! R56   R(29,31)                1.2754         estimate D2E/DX2                !
 ! A1    A(2,1,32)             109.4995         estimate D2E/DX2                !
 ! A2    A(2,1,33)             109.5267         estimate D2E/DX2                !
 ! A3    A(2,1,34)             109.4979         estimate D2E/DX2                !
 ! A4    A(32,1,33)            109.4032         estimate D2E/DX2                !
 ! A5    A(32,1,34)            109.4671         estimate D2E/DX2                !
 ! A6    A(33,1,34)            109.4328         estimate D2E/DX2                !
 ! A7    A(1,2,3)              112.7679         estimate D2E/DX2                !
 ! A8    A(1,2,19)             111.7476         estimate D2E/DX2                !
 ! A9    A(1,2,35)             105.4573         estimate D2E/DX2                !
 ! A10   A(3,2,19)             114.964          estimate D2E/DX2                !
 ! A11   A(3,2,35)             105.465          estimate D2E/DX2                !
 ! A12   A(19,2,35)            105.4704         estimate D2E/DX2                !
 ! A13   A(2,3,4)              111.0264         estimate D2E/DX2                !
 ! A14   A(2,3,36)             109.4717         estimate D2E/DX2                !
 ! A15   A(2,3,37)             109.4623         estimate D2E/DX2                !
 ! A16   A(4,3,36)             109.4295         estimate D2E/DX2                !
 ! A17   A(4,3,37)             109.4435         estimate D2E/DX2                !
 ! A18   A(36,3,37)            107.95           estimate D2E/DX2                !
 ! A19   A(3,4,5)              113.8772         estimate D2E/DX2                !
 ! A20   A(3,4,13)             109.966          estimate D2E/DX2                !
 ! A21   A(3,4,38)             106.5051         estimate D2E/DX2                !
 ! A22   A(5,4,13)             112.962          estimate D2E/DX2                !
 ! A23   A(5,4,38)             106.4754         estimate D2E/DX2                !
 ! A24   A(13,4,38)            106.5112         estimate D2E/DX2                !
 ! A25   A(4,5,6)              123.9519         estimate D2E/DX2                !
 ! A26   A(4,5,39)             116.0293         estimate D2E/DX2                !
 ! A27   A(6,5,39)             120.0188         estimate D2E/DX2                !
 ! A28   A(5,6,7)              120.0624         estimate D2E/DX2                !
 ! A29   A(5,6,12)             121.0348         estimate D2E/DX2                !
 ! A30   A(7,6,12)             118.7492         estimate D2E/DX2                !
 ! A31   A(6,7,8)              120.6804         estimate D2E/DX2                !
 ! A32   A(6,7,40)             119.9857         estimate D2E/DX2                !
 ! A33   A(8,7,40)             119.3339         estimate D2E/DX2                !
 ! A34   A(7,8,9)              119.052          estimate D2E/DX2                !
 ! A35   A(7,8,41)             120.0133         estimate D2E/DX2                !
 ! A36   A(9,8,41)             120.9346         estimate D2E/DX2                !
 ! A37   A(8,9,10)             118.923          estimate D2E/DX2                !
 ! A38   A(8,9,11)             121.3201         estimate D2E/DX2                !
 ! A39   A(10,9,11)            119.7556         estimate D2E/DX2                !
 ! A40   A(9,11,12)            119.6683         estimate D2E/DX2                !
 ! A41   A(9,11,42)            119.9922         estimate D2E/DX2                !
 ! A42   A(12,11,42)           120.3395         estimate D2E/DX2                !
 ! A43   A(6,12,11)            120.4723         estimate D2E/DX2                !
 ! A44   A(6,12,43)            119.9891         estimate D2E/DX2                !
 ! A45   A(11,12,43)           119.5386         estimate D2E/DX2                !
 ! A46   A(4,13,14)            124.4995         estimate D2E/DX2                !
 ! A47   A(4,13,18)            116.0317         estimate D2E/DX2                !
 ! A48   A(14,13,18)           119.1033         estimate D2E/DX2                !
 ! A49   A(13,14,15)           120.486          estimate D2E/DX2                !
 ! A50   A(13,14,44)           119.9997         estimate D2E/DX2                !
 ! A51   A(15,14,44)           119.5143         estimate D2E/DX2                !
 ! A52   A(14,15,16)           118.3997         estimate D2E/DX2                !
 ! A53   A(14,15,23)           122.0408         estimate D2E/DX2                !
 ! A54   A(16,15,23)           119.4563         estimate D2E/DX2                !
 ! A55   A(15,16,17)           121.7586         estimate D2E/DX2                !
 ! A56   A(15,16,45)           119.9878         estimate D2E/DX2                !
 ! A57   A(17,16,45)           118.2535         estimate D2E/DX2                !
 ! A58   A(16,17,18)           119.4942         estimate D2E/DX2                !
 ! A59   A(16,17,46)           120.0112         estimate D2E/DX2                !
 ! A60   A(18,17,46)           120.4946         estimate D2E/DX2                !
 ! A61   A(13,18,17)           120.4004         estimate D2E/DX2                !
 ! A62   A(13,18,19)           117.5594         estimate D2E/DX2                !
 ! A63   A(17,18,19)           122.0202         estimate D2E/DX2                !
 ! A64   A(2,19,18)            114.9838         estimate D2E/DX2                !
 ! A65   A(2,19,20)            119.8589         estimate D2E/DX2                !
 ! A66   A(18,19,20)           125.1571         estimate D2E/DX2                !
 ! A67   A(19,20,21)           117.5767         estimate D2E/DX2                !
 ! A68   A(19,20,22)           120.7233         estimate D2E/DX2                !
 ! A69   A(21,20,22)           121.6734         estimate D2E/DX2                !
 ! A70   A(20,21,47)           109.5171         estimate D2E/DX2                !
 ! A71   A(20,21,48)           109.486          estimate D2E/DX2                !
 ! A72   A(20,21,49)           109.5031         estimate D2E/DX2                !
 ! A73   A(47,21,48)           109.4397         estimate D2E/DX2                !
 ! A74   A(47,21,49)           109.4575         estimate D2E/DX2                !
 ! A75   A(48,21,49)           109.4238         estimate D2E/DX2                !
 ! A76   A(15,23,24)           120.0819         estimate D2E/DX2                !
 ! A77   A(15,23,28)           122.1354         estimate D2E/DX2                !
 ! A78   A(24,23,28)           117.747          estimate D2E/DX2                !
 ! A79   A(23,24,25)           121.5922         estimate D2E/DX2                !
 ! A80   A(23,24,50)           120.0052         estimate D2E/DX2                !
 ! A81   A(25,24,50)           118.4026         estimate D2E/DX2                !
 ! A82   A(24,25,26)           120.8271         estimate D2E/DX2                !
 ! A83   A(24,25,51)           119.977          estimate D2E/DX2                !
 ! A84   A(26,25,51)           119.1959         estimate D2E/DX2                !
 ! A85   A(25,26,27)           118.1431         estimate D2E/DX2                !
 ! A86   A(25,26,29)           120.8865         estimate D2E/DX2                !
 ! A87   A(27,26,29)           120.9616         estimate D2E/DX2                !
 ! A88   A(26,27,28)           120.571          estimate D2E/DX2                !
 ! A89   A(26,27,52)           120.0096         estimate D2E/DX2                !
 ! A90   A(28,27,52)           119.4195         estimate D2E/DX2                !
 ! A91   A(23,28,27)           121.1084         estimate D2E/DX2                !
 ! A92   A(23,28,53)           119.9835         estimate D2E/DX2                !
 ! A93   A(27,28,53)           118.9082         estimate D2E/DX2                !
 ! A94   A(26,29,30)           119.0122         estimate D2E/DX2                !
 ! A95   A(26,29,31)           117.9845         estimate D2E/DX2                !
 ! A96   A(30,29,31)           122.987          estimate D2E/DX2                !
 ! D1    D(32,1,2,3)          -179.9677         estimate D2E/DX2                !
 ! D2    D(32,1,2,19)          -48.6518         estimate D2E/DX2                !
 ! D3    D(32,1,2,35)           65.4442         estimate D2E/DX2                !
 ! D4    D(33,1,2,3)           -59.9997         estimate D2E/DX2                !
 ! D5    D(33,1,2,19)           71.3163         estimate D2E/DX2                !
 ! D6    D(33,1,2,35)         -174.5878         estimate D2E/DX2                !
 ! D7    D(34,1,2,3)            60.0036         estimate D2E/DX2                !
 ! D8    D(34,1,2,19)         -168.6804         estimate D2E/DX2                !
 ! D9    D(34,1,2,35)          -54.5845         estimate D2E/DX2                !
 ! D10   D(1,2,3,4)            141.5496         estimate D2E/DX2                !
 ! D11   D(1,2,3,36)            20.6255         estimate D2E/DX2                !
 ! D12   D(1,2,3,37)           -97.515          estimate D2E/DX2                !
 ! D13   D(19,2,3,4)            11.86           estimate D2E/DX2                !
 ! D14   D(19,2,3,36)         -109.0641         estimate D2E/DX2                !
 ! D15   D(19,2,3,37)          132.7955         estimate D2E/DX2                !
 ! D16   D(35,2,3,4)          -103.867          estimate D2E/DX2                !
 ! D17   D(35,2,3,36)          135.209          estimate D2E/DX2                !
 ! D18   D(35,2,3,37)           17.0685         estimate D2E/DX2                !
 ! D19   D(1,2,19,18)          -93.7088         estimate D2E/DX2                !
 ! D20   D(1,2,19,20)           86.1459         estimate D2E/DX2                !
 ! D21   D(3,2,19,18)           36.4796         estimate D2E/DX2                !
 ! D22   D(3,2,19,20)         -143.6658         estimate D2E/DX2                !
 ! D23   D(35,2,19,18)         152.2034         estimate D2E/DX2                !
 ! D24   D(35,2,19,20)         -27.9419         estimate D2E/DX2                !
 ! D25   D(2,3,4,5)            179.8801         estimate D2E/DX2                !
 ! D26   D(2,3,4,13)           -52.1872         estimate D2E/DX2                !
 ! D27   D(2,3,4,38)            62.8382         estimate D2E/DX2                !
 ! D28   D(36,3,4,5)           -59.1709         estimate D2E/DX2                !
 ! D29   D(36,3,4,13)           68.7618         estimate D2E/DX2                !
 ! D30   D(36,3,4,38)         -176.2128         estimate D2E/DX2                !
 ! D31   D(37,3,4,5)            58.9336         estimate D2E/DX2                !
 ! D32   D(37,3,4,13)         -173.1337         estimate D2E/DX2                !
 ! D33   D(37,3,4,38)          -58.1083         estimate D2E/DX2                !
 ! D34   D(3,4,5,6)           -149.6239         estimate D2E/DX2                !
 ! D35   D(3,4,5,39)            30.3957         estimate D2E/DX2                !
 ! D36   D(13,4,5,6)            83.9982         estimate D2E/DX2                !
 ! D37   D(13,4,5,39)          -95.9822         estimate D2E/DX2                !
 ! D38   D(38,4,5,6)           -32.5647         estimate D2E/DX2                !
 ! D39   D(38,4,5,39)          147.4549         estimate D2E/DX2                !
 ! D40   D(3,4,13,14)         -124.8738         estimate D2E/DX2                !
 ! D41   D(3,4,13,18)           48.098          estimate D2E/DX2                !
 ! D42   D(5,4,13,14)            3.5629         estimate D2E/DX2                !
 ! D43   D(5,4,13,18)          176.5347         estimate D2E/DX2                !
 ! D44   D(38,4,13,14)         120.1046         estimate D2E/DX2                !
 ! D45   D(38,4,13,18)         -66.9236         estimate D2E/DX2                !
 ! D46   D(4,5,6,7)            155.9914         estimate D2E/DX2                !
 ! D47   D(4,5,6,12)           -28.5696         estimate D2E/DX2                !
 ! D48   D(39,5,6,7)           -24.0289         estimate D2E/DX2                !
 ! D49   D(39,5,6,12)          151.4101         estimate D2E/DX2                !
 ! D50   D(5,6,7,8)            178.2051         estimate D2E/DX2                !
 ! D51   D(5,6,7,40)            -1.7822         estimate D2E/DX2                !
 ! D52   D(12,6,7,8)             2.6625         estimate D2E/DX2                !
 ! D53   D(12,6,7,40)         -177.3248         estimate D2E/DX2                !
 ! D54   D(5,6,12,11)         -177.7715         estimate D2E/DX2                !
 ! D55   D(5,6,12,43)            2.2149         estimate D2E/DX2                !
 ! D56   D(7,6,12,11)           -2.2738         estimate D2E/DX2                !
 ! D57   D(7,6,12,43)          177.7126         estimate D2E/DX2                !
 ! D58   D(6,7,8,9)             -2.1839         estimate D2E/DX2                !
 ! D59   D(6,7,8,41)           177.7952         estimate D2E/DX2                !
 ! D60   D(40,7,8,9)           177.8035         estimate D2E/DX2                !
 ! D61   D(40,7,8,41)           -2.2174         estimate D2E/DX2                !
 ! D62   D(7,8,9,10)          -178.2883         estimate D2E/DX2                !
 ! D63   D(7,8,9,11)             1.3125         estimate D2E/DX2                !
 ! D64   D(41,8,9,10)            1.7328         estimate D2E/DX2                !
 ! D65   D(41,8,9,11)         -178.6664         estimate D2E/DX2                !
 ! D66   D(8,9,11,12)           -0.9404         estimate D2E/DX2                !
 ! D67   D(8,9,11,42)          179.0949         estimate D2E/DX2                !
 ! D68   D(10,9,11,12)         178.657          estimate D2E/DX2                !
 ! D69   D(10,9,11,42)          -1.3077         estimate D2E/DX2                !
 ! D70   D(9,11,12,6)            1.4329         estimate D2E/DX2                !
 ! D71   D(9,11,12,43)        -178.5536         estimate D2E/DX2                !
 ! D72   D(42,11,12,6)        -178.6026         estimate D2E/DX2                !
 ! D73   D(42,11,12,43)          1.411          estimate D2E/DX2                !
 ! D74   D(4,13,14,15)         179.8924         estimate D2E/DX2                !
 ! D75   D(4,13,14,44)          -0.0908         estimate D2E/DX2                !
 ! D76   D(18,13,14,15)          7.1212         estimate D2E/DX2                !
 ! D77   D(18,13,14,44)       -172.862          estimate D2E/DX2                !
 ! D78   D(4,13,18,17)        -177.7314         estimate D2E/DX2                !
 ! D79   D(4,13,18,19)           0.6768         estimate D2E/DX2                !
 ! D80   D(14,13,18,17)         -4.3587         estimate D2E/DX2                !
 ! D81   D(14,13,18,19)        174.0495         estimate D2E/DX2                !
 ! D82   D(13,14,15,16)         -6.4537         estimate D2E/DX2                !
 ! D83   D(13,14,15,23)        177.2627         estimate D2E/DX2                !
 ! D84   D(44,14,15,16)        173.5296         estimate D2E/DX2                !
 ! D85   D(44,14,15,23)         -2.754          estimate D2E/DX2                !
 ! D86   D(14,15,16,17)          3.0719         estimate D2E/DX2                !
 ! D87   D(14,15,16,45)       -176.9074         estimate D2E/DX2                !
 ! D88   D(23,15,16,17)        179.4541         estimate D2E/DX2                !
 ! D89   D(23,15,16,45)         -0.5252         estimate D2E/DX2                !
 ! D90   D(14,15,23,24)       -154.9103         estimate D2E/DX2                !
 ! D91   D(14,15,23,28)         27.3117         estimate D2E/DX2                !
 ! D92   D(16,15,23,24)         28.8443         estimate D2E/DX2                !
 ! D93   D(16,15,23,28)       -148.9337         estimate D2E/DX2                !
 ! D94   D(15,16,17,18)         -0.3844         estimate D2E/DX2                !
 ! D95   D(15,16,17,46)        179.6013         estimate D2E/DX2                !
 ! D96   D(45,16,17,18)        179.5952         estimate D2E/DX2                !
 ! D97   D(45,16,17,46)         -0.419          estimate D2E/DX2                !
 ! D98   D(16,17,18,13)          1.0193         estimate D2E/DX2                !
 ! D99   D(16,17,18,19)       -177.3162         estimate D2E/DX2                !
 ! D100  D(46,17,18,13)       -178.9663         estimate D2E/DX2                !
 ! D101  D(46,17,18,19)          2.6982         estimate D2E/DX2                !
 ! D102  D(13,18,19,2)         -44.2542         estimate D2E/DX2                !
 ! D103  D(13,18,19,20)        135.8999         estimate D2E/DX2                !
 ! D104  D(17,18,19,2)         134.1264         estimate D2E/DX2                !
 ! D105  D(17,18,19,20)        -45.7194         estimate D2E/DX2                !
 ! D106  D(2,19,20,21)         179.8038         estimate D2E/DX2                !
 ! D107  D(2,19,20,22)          -2.0405         estimate D2E/DX2                !
 ! D108  D(18,19,20,21)         -0.3573         estimate D2E/DX2                !
 ! D109  D(18,19,20,22)        177.7984         estimate D2E/DX2                !
 ! D110  D(19,20,21,47)       -179.9899         estimate D2E/DX2                !
 ! D111  D(19,20,21,48)        -59.9913         estimate D2E/DX2                !
 ! D112  D(19,20,21,49)         59.9793         estimate D2E/DX2                !
 ! D113  D(22,20,21,47)          1.873          estimate D2E/DX2                !
 ! D114  D(22,20,21,48)        121.8716         estimate D2E/DX2                !
 ! D115  D(22,20,21,49)       -118.1578         estimate D2E/DX2                !
 ! D116  D(15,23,24,25)       -178.5779         estimate D2E/DX2                !
 ! D117  D(15,23,24,50)          1.4247         estimate D2E/DX2                !
 ! D118  D(28,23,24,25)         -0.7039         estimate D2E/DX2                !
 ! D119  D(28,23,24,50)        179.2987         estimate D2E/DX2                !
 ! D120  D(15,23,28,27)        178.9571         estimate D2E/DX2                !
 ! D121  D(15,23,28,53)         -1.0499         estimate D2E/DX2                !
 ! D122  D(24,23,28,27)          1.1297         estimate D2E/DX2                !
 ! D123  D(24,23,28,53)       -178.8774         estimate D2E/DX2                !
 ! D124  D(23,24,25,26)         -0.2651         estimate D2E/DX2                !
 ! D125  D(23,24,25,51)        179.731          estimate D2E/DX2                !
 ! D126  D(50,24,25,26)        179.7323         estimate D2E/DX2                !
 ! D127  D(50,24,25,51)         -0.2715         estimate D2E/DX2                !
 ! D128  D(24,25,26,27)          0.8055         estimate D2E/DX2                !
 ! D129  D(24,25,26,29)        179.7346         estimate D2E/DX2                !
 ! D130  D(51,25,26,27)       -179.1907         estimate D2E/DX2                !
 ! D131  D(51,25,26,29)         -0.2617         estimate D2E/DX2                !
 ! D132  D(25,26,27,28)         -0.3784         estimate D2E/DX2                !
 ! D133  D(25,26,27,52)        179.6428         estimate D2E/DX2                !
 ! D134  D(29,26,27,28)       -179.3066         estimate D2E/DX2                !
 ! D135  D(29,26,27,52)          0.7146         estimate D2E/DX2                !
 ! D136  D(25,26,29,30)       -166.7198         estimate D2E/DX2                !
 ! D137  D(25,26,29,31)         11.855          estimate D2E/DX2                !
 ! D138  D(27,26,29,30)         12.179          estimate D2E/DX2                !
 ! D139  D(27,26,29,31)       -169.2463         estimate D2E/DX2                !
 ! D140  D(26,27,28,23)         -0.6021         estimate D2E/DX2                !
 ! D141  D(26,27,28,53)        179.4049         estimate D2E/DX2                !
 ! D142  D(52,27,28,23)        179.3768         estimate D2E/DX2                !
 ! D143  D(52,27,28,53)         -0.6162         estimate D2E/DX2                !
 --------------------------------------------------------------------------------
 Trust Radius=3.00D-01 FncErr=1.00D-07 GrdErr=1.00D-07
 Number of steps in this run= 305 maximum allowed number of steps= 318.
 GradGradGradGradGradGradGradGradGradGradGradGradGradGradGradGradGradGrad

 Stoichiometry    C25H22ClN2O3(1-)
 Framework group  C1[X(C25H22ClN2O3)]
 Deg. of freedom   153
 Full point group                 C1
 Largest Abelian subgroup         C1      NOp   1
 Largest concise Abelian subgroup C1      NOp   1
                         Standard orientation:                         
 ---------------------------------------------------------------------
 Center     Atomic     Atomic              Coordinates (Angstroms)
 Number     Number      Type              X           Y           Z
 ---------------------------------------------------------------------
    1          6             0        4.272656   -2.817572   -1.943341
    2          6             0        4.054132   -1.610172   -1.016328
    3          6             0        3.435362   -0.412840   -1.739668
    4          6             0        2.430734    0.293778   -0.857842
    5          7             0        1.806637    1.443707   -1.483686
    6          6             0        1.363724    2.558717   -0.788165
    7          6             0        1.248080    3.770826   -1.430124
    8          6             0        0.776321    4.874133   -0.763654
    9          6             0        0.382194    4.744967    0.526767
   10         17             0       -0.261089    6.143539    1.359362
   11          6             0        0.469677    3.563361    1.171802
   12          6             0        0.948965    2.460357    0.508198
   13          6             0        1.430928   -0.697720   -0.319845
   14          6             0        0.056293   -0.583968   -0.463984
   15          6             0       -0.789488   -1.549525    0.064393
   16          6             0       -0.227580   -2.685829    0.613523
   17          6             0        1.129137   -2.848186    0.702403
   18          6             0        1.960376   -1.863339    0.228335
   19          7             0        3.375128   -1.999898    0.242280
   20          6             0        4.099031   -2.444696    1.282656
   21          6             0        3.361210   -2.820119    2.530635
   22          8             0        5.272722   -2.563824    1.195348
   23          6             0       -2.258102   -1.432975   -0.017024
   24          6             0       -3.051366   -2.069738    0.905626
   25          6             0       -4.424031   -2.005875    0.842174
   26          6             0       -5.052006   -1.291132   -0.153534
   27          6             0       -4.264628   -0.654933   -1.095549
   28          6             0       -2.883770   -0.732752   -1.027727
   29          6             0       -6.540695   -1.225812   -0.227047
   30          8             0       -7.051567   -0.809529   -1.216970
   31          8             0       -7.208428   -1.648870    0.773809
   32          1             0        4.713397   -3.637244   -1.375537
   33          1             0        3.316374   -3.136886   -2.357150
   34          1             0        4.943129   -2.536298   -2.755004
   35          1             0        5.052021   -1.286894   -0.720261
   36          1             0        2.942156   -0.753603   -2.650376
   37          1             0        4.222021    0.285262   -2.024836
   38          1             0        2.984927    0.672207    0.001370
   39          1             0        1.702126    1.399783   -2.487368
   40          1             0        1.529614    3.860471   -2.468394
   41          1             0        0.723495    5.827771   -1.267378
   42          1             0        0.163077    3.488105    2.204620
   43          1             0        0.996119    1.510128    1.019486
   44          1             0       -0.363654    0.260821   -0.991023
   45          1             0       -0.862416   -3.475673    0.986477
   46          1             0        1.537947   -3.745138    1.142794
   47          1             0        4.070965   -3.160611    3.284910
   48          1             0        2.819265   -1.952317    2.907778
   49          1             0        2.654832   -3.620548    2.309038
   50          1             0       -2.600272   -2.637396    1.705020
   51          1             0       -5.022856   -2.520395    1.579211
   52          1             0       -4.725823   -0.090715   -1.893167
   53          1             0       -2.295011   -0.233610   -1.783099
 ---------------------------------------------------------------------
 Rotational constants (GHZ):      0.1246743      0.0881992      0.0583531
 Standard basis: 6-31G(d) (6D, 7F)
 There are   513 symmetry adapted basis functions of A   symmetry.
 Integral buffers will be    131072 words long.
 Raffenetti 1 integral format.
 Two-electron integral symmetry is turned on.
   513 basis functions,   980 primitive gaussians,   513 cartesian basis functions
   114 alpha electrons      114 beta electrons
       nuclear repulsion energy      3019.5243595010 Hartrees.
 NAtoms=   53 NActive=   53 NUniq=   53 SFac= 7.50D-01 NAtFMM=   80 NAOKFM=F Big=F
 One-electron integrals computed using PRISM.
 NBasis=   513 RedAO= T  NBF=   513
 NBsUse=   513 1.00D-06 NBFU=   513
 Harris functional with IExCor=  205 diagonalized for initial guess.
 ExpMin= 1.43D-01 ExpMax= 2.52D+04 ExpMxC= 3.78D+03 IAcc=1 IRadAn=         1 AccDes= 1.00D-06
 HarFok:  IExCor= 205 AccDes= 1.00D-06 IRadAn=         1 IDoV=1
 ScaDFX=  1.000000  1.000000  1.000000  1.000000
 Initial guess orbital symmetries:
       Occupied  (A) (A) (A) (A) (A) (A) (A) (A) (A) (A) (A) (A)
                 (A) (A) (A) (A) (A) (A) (A) (A) (A) (A) (A) (A)
                 (A) (A) (A) (A) (A) (A) (A) (A) (A) (A) (A) (A)
                 (A) (A) (A) (A) (A) (A) (A) (A) (A) (A) (A) (A)
                 (A) (A) (A) (A) (A) (A) (A) (A) (A) (A) (A) (A)
                 (A) (A) (A) (A) (A) (A) (A) (A) (A) (A) (A) (A)
                 (A) (A) (A) (A) (A) (A) (A) (A) (A) (A) (A) (A)
                 (A) (A) (A) (A) (A) (A) (A) (A) (A) (A) (A) (A)
                 (A) (A) (A) (A) (A) (A) (A) (A) (A) (A) (A) (A)
                 (A) (A) (A) (A) (A) (A)
       Virtual   (A) (A) (A) (A) (A) (A) (A) (A) (A) (A) (A) (A)
                 (A) (A) (A) (A) (A) (A) (A) (A) (A) (A) (A) (A)
                 (A) (A) (A) (A) (A) (A) (A) (A) (A) (A) (A) (A)
                 (A) (A) (A) (A) (A) (A) (A) (A) (A) (A) (A) (A)
                 (A) (A) (A) (A) (A) (A) (A) (A) (A) (A) (A) (A)
                 (A) (A) (A) (A) (A) (A) (A) (A) (A) (A) (A) (A)
                 (A) (A) (A) (A) (A) (A) (A) (A) (A) (A) (A) (A)
                 (A) (A) (A) (A) (A) (A) (A) (A) (A) (A) (A) (A)
                 (A) (A) (A) (A) (A) (A) (A) (A) (A) (A) (A) (A)
                 (A) (A) (A) (A) (A) (A) (A) (A) (A) (A) (A) (A)
                 (A) (A) (A) (A) (A) (A) (A) (A) (A) (A) (A) (A)
                 (A) (A) (A) (A) (A) (A) (A) (A) (A) (A) (A) (A)
                 (A) (A) (A) (A) (A) (A) (A) (A) (A) (A) (A) (A)
                 (A) (A) (A) (A) (A) (A) (A) (A) (A) (A) (A) (A)
                 (A) (A) (A) (A) (A) (A) (A) (A) (A) (A) (A) (A)
                 (A) (A) (A) (A) (A) (A) (A) (A) (A) (A) (A) (A)
                 (A) (A) (A) (A) (A) (A) (A) (A) (A) (A) (A) (A)
                 (A) (A) (A) (A) (A) (A) (A) (A) (A) (A) (A) (A)
                 (A) (A) (A) (A) (A) (A) (A) (A) (A) (A) (A) (A)
                 (A) (A) (A) (A) (A) (A) (A) (A) (A) (A) (A) (A)
                 (A) (A) (A) (A) (A) (A) (A) (A) (A) (A) (A) (A)
                 (A) (A) (A) (A) (A) (A) (A) (A) (A) (A) (A) (A)
                 (A) (A) (A) (A) (A) (A) (A) (A) (A) (A) (A) (A)
                 (A) (A) (A) (A) (A) (A) (A) (A) (A) (A) (A) (A)
                 (A) (A) (A) (A) (A) (A) (A) (A) (A) (A) (A) (A)
                 (A) (A) (A) (A) (A) (A) (A) (A) (A) (A) (A) (A)
                 (A) (A) (A) (A) (A) (A) (A) (A) (A) (A) (A) (A)
                 (A) (A) (A) (A) (A) (A) (A) (A) (A) (A) (A) (A)
                 (A) (A) (A) (A) (A) (A) (A) (A) (A) (A) (A) (A)
                 (A) (A) (A) (A) (A) (A) (A) (A) (A) (A) (A) (A)
                 (A) (A) (A) (A) (A) (A) (A) (A) (A) (A) (A) (A)
                 (A) (A) (A) (A) (A) (A) (A) (A) (A) (A) (A) (A)
                 (A) (A) (A) (A) (A) (A) (A) (A) (A) (A) (A) (A)
                 (A) (A) (A)
 The electronic state of the initial guess is 1-A.
 Requested convergence on RMS density matrix=1.00D-08 within 128 cycles.
 Requested convergence on MAX density matrix=1.00D-06.
 Requested convergence on             energy=1.00D-06.
 No special actions if energy rises.
 Integral accuracy reduced to 1.0D-05 until final iterations.
 Initial convergence to 1.0D-05 achieved.  Increase integral accuracy.
 SCF Done:  E(RHF) =  -1752.52337811     A.U. after   16 cycles
             Convg  =    0.5877D-08             -V/T =  2.0004
             S**2   =   0.0000

 **********************************************************************

            Population analysis using the SCF density.

 **********************************************************************

 Orbital symmetries:
 BldTbl:  Degeneracy threshold= 1.00D-02
       Occupied  (A) (A) (A) (A) (A) (A) (A) (A) (A) (A) (A) (A)
                 (A) (A) (A) (A) (A) (A) (A) (A) (A) (A) (A) (A)
                 (A) (A) (A) (A) (A) (A) (A) (A) (A) (A) (A) (A)
                 (A) (A) (A) (A) (A) (A) (A) (A) (A) (A) (A) (A)
                 (A) (A) (A) (A) (A) (A) (A) (A) (A) (A) (A) (A)
                 (A) (A) (A) (A) (A) (A) (A) (A) (A) (A) (A) (A)
                 (A) (A) (A) (A) (A) (A) (A) (A) (A) (A) (A) (A)
                 (A) (A) (A) (A) (A) (A) (A) (A) (A) (A) (A) (A)
                 (A) (A) (A) (A) (A) (A) (A) (A) (A) (A) (A) (A)
                 (A) (A) (A) (A) (A) (A)
       Virtual   (A) (A) (A) (A) (A) (A) (A) (A) (A) (A) (A) (A)
                 (A) (A) (A) (A) (A) (A) (A) (A) (A) (A) (A) (A)
                 (A) (A) (A) (A) (A) (A) (A) (A) (A) (A) (A) (A)
                 (A) (A) (A) (A) (A) (A) (A) (A) (A) (A) (A) (A)
                 (A) (A) (A) (A) (A) (A) (A) (A) (A) (A) (A) (A)
                 (A) (A) (A) (A) (A) (A) (A) (A) (A) (A) (A) (A)
                 (A) (A) (A) (A) (A) (A) (A) (A) (A) (A) (A) (A)
                 (A) (A) (A) (A) (A) (A) (A) (A) (A) (A) (A) (A)
                 (A) (A) (A) (A) (A) (A) (A) (A) (A) (A) (A) (A)
                 (A) (A) (A) (A) (A) (A) (A) (A) (A) (A) (A) (A)
                 (A) (A) (A) (A) (A) (A) (A) (A) (A) (A) (A) (A)
                 (A) (A) (A) (A) (A) (A) (A) (A) (A) (A) (A) (A)
                 (A) (A) (A) (A) (A) (A) (A) (A) (A) (A) (A) (A)
                 (A) (A) (A) (A) (A) (A) (A) (A) (A) (A) (A) (A)
                 (A) (A) (A) (A) (A) (A) (A) (A) (A) (A) (A) (A)
                 (A) (A) (A) (A) (A) (A) (A) (A) (A) (A) (A) (A)
                 (A) (A) (A) (A) (A) (A) (A) (A) (A) (A) (A) (A)
                 (A) (A) (A) (A) (A) (A) (A) (A) (A) (A) (A) (A)
                 (A) (A) (A) (A) (A) (A) (A) (A) (A) (A) (A) (A)
                 (A) (A) (A) (A) (A) (A) (A) (A) (A) (A) (A) (A)
                 (A) (A) (A) (A) (A) (A) (A) (A) (A) (A) (A) (A)
                 (A) (A) (A) (A) (A) (A) (A) (A) (A) (A) (A) (A)
                 (A) (A) (A) (A) (A) (A) (A) (A) (A) (A) (A) (A)
                 (A) (A) (A) (A) (A) (A) (A) (A) (A) (A) (A) (A)
                 (A) (A) (A) (A) (A) (A) (A) (A) (A) (A) (A) (A)
                 (A) (A) (A) (A) (A) (A) (A) (A) (A) (A) (A) (A)
                 (A) (A) (A) (A) (A) (A) (A) (A) (A) (A) (A) (A)
                 (A) (A) (A) (A) (A) (A) (A) (A) (A) (A) (A) (A)
                 (A) (A) (A) (A) (A) (A) (A) (A) (A) (A) (A) (A)
                 (A) (A) (A) (A) (A) (A) (A) (A) (A) (A) (A) (A)
                 (A) (A) (A) (A) (A) (A) (A) (A) (A) (A) (A) (A)
                 (A) (A) (A) (A) (A) (A) (A) (A) (A) (A) (A) (A)
                 (A) (A) (A) (A) (A) (A) (A) (A) (A) (A) (A) (A)
                 (A) (A) (A)
 The electronic state is 1-A.
 Alpha  occ. eigenvalues -- -104.76093 -20.46471 -20.29598 -20.27251 -15.53479
 Alpha  occ. eigenvalues --  -15.51268 -11.28728 -11.22434 -11.22289 -11.22079
 Alpha  occ. eigenvalues --  -11.21705 -11.20785 -11.18724 -11.18402 -11.18381
 Alpha  occ. eigenvalues --  -11.17645 -11.17350 -11.17330 -11.16956 -11.16811
 Alpha  occ. eigenvalues --  -11.16602 -11.16551 -11.16192 -11.15864 -11.13041
 Alpha  occ. eigenvalues --  -11.13020 -11.11809 -11.11438 -11.10430 -11.09972
 Alpha  occ. eigenvalues --  -11.08787 -10.49437  -7.96376  -7.96056  -7.96046
 Alpha  occ. eigenvalues --   -1.35139  -1.21641  -1.19504  -1.19433  -1.13196
 Alpha  occ. eigenvalues --   -1.09599  -1.05999  -1.05581  -1.04366  -1.02812
 Alpha  occ. eigenvalues --   -0.98524  -0.97708  -0.96070  -0.95368  -0.92984
 Alpha  occ. eigenvalues --   -0.90821  -0.89784  -0.88722  -0.83042  -0.79722
 Alpha  occ. eigenvalues --   -0.79401  -0.78307  -0.75580  -0.74004  -0.71111
 Alpha  occ. eigenvalues --   -0.70232  -0.68944  -0.67154  -0.62937  -0.62662
 Alpha  occ. eigenvalues --   -0.62332  -0.61474  -0.60406  -0.59256  -0.58781
 Alpha  occ. eigenvalues --   -0.57360  -0.56486  -0.56203  -0.54632  -0.54250
 Alpha  occ. eigenvalues --   -0.54165  -0.53416  -0.52933  -0.51749  -0.50563
 Alpha  occ. eigenvalues --   -0.50190  -0.49985  -0.49513  -0.48826  -0.48022
 Alpha  occ. eigenvalues --   -0.47497  -0.46836  -0.46362  -0.46138  -0.45322
 Alpha  occ. eigenvalues --   -0.44967  -0.44066  -0.43173  -0.42964  -0.42283
 Alpha  occ. eigenvalues --   -0.41302  -0.40280  -0.39288  -0.39091  -0.38699
 Alpha  occ. eigenvalues --   -0.36930  -0.35977  -0.35863  -0.35329  -0.33677
 Alpha  occ. eigenvalues --   -0.29395  -0.27162  -0.26195  -0.23859  -0.21964
 Alpha  occ. eigenvalues --   -0.21252  -0.19414  -0.18521  -0.17770
 Alpha virt. eigenvalues --    0.18290   0.19379   0.20305   0.21419   0.25612
 Alpha virt. eigenvalues --    0.25934   0.26517   0.28014   0.28557   0.29025
 Alpha virt. eigenvalues --    0.29995   0.31535   0.33174   0.33484   0.34486
 Alpha virt. eigenvalues --    0.34939   0.35074   0.36042   0.36570   0.37012
 Alpha virt. eigenvalues --    0.37467   0.37942   0.38144   0.39601   0.39902
 Alpha virt. eigenvalues --    0.40973   0.41863   0.42484   0.43433   0.44202
 Alpha virt. eigenvalues --    0.44634   0.45381   0.46159   0.47007   0.47687
 Alpha virt. eigenvalues --    0.48236   0.48469   0.49292   0.51036   0.51554
 Alpha virt. eigenvalues --    0.52751   0.54076   0.54568   0.55047   0.56124
 Alpha virt. eigenvalues --    0.56657   0.57635   0.58588   0.58923   0.60465
 Alpha virt. eigenvalues --    0.61056   0.62114   0.62741   0.64089   0.65645
 Alpha virt. eigenvalues --    0.66806   0.67258   0.67803   0.68637   0.69320
 Alpha virt. eigenvalues --    0.69803   0.69913   0.70684   0.72833   0.74786
 Alpha virt. eigenvalues --    0.75545   0.77449   0.78249   0.78342   0.79060
 Alpha virt. eigenvalues --    0.80321   0.81058   0.81333   0.81562   0.82593
 Alpha virt. eigenvalues --    0.83121   0.83648   0.84635   0.84923   0.86087
 Alpha virt. eigenvalues --    0.86719   0.86814   0.87687   0.87819   0.88374
 Alpha virt. eigenvalues --    0.88506   0.89148   0.90041   0.90518   0.91237
 Alpha virt. eigenvalues --    0.91769   0.92462   0.92750   0.93232   0.93642
 Alpha virt. eigenvalues --    0.94062   0.94474   0.94776   0.95040   0.95899
 Alpha virt. eigenvalues --    0.96254   0.96476   0.96821   0.97426   0.98788
 Alpha virt. eigenvalues --    0.99892   1.00398   1.01338   1.01889   1.03112
 Alpha virt. eigenvalues --    1.04097   1.04483   1.05007   1.05865   1.06494
 Alpha virt. eigenvalues --    1.07737   1.08859   1.08968   1.09684   1.10647
 Alpha virt. eigenvalues --    1.11179   1.13206   1.13651   1.14009   1.14820
 Alpha virt. eigenvalues --    1.15265   1.16084   1.16855   1.17053   1.17230
 Alpha virt. eigenvalues --    1.18058   1.18442   1.19352   1.19743   1.20260
 Alpha virt. eigenvalues --    1.20425   1.20910   1.21269   1.21728   1.21904
 Alpha virt. eigenvalues --    1.22166   1.22610   1.23153   1.23698   1.23882
 Alpha virt. eigenvalues --    1.24147   1.24932   1.25385   1.25420   1.25758
 Alpha virt. eigenvalues --    1.26453   1.27454   1.27735   1.28428   1.28820
 Alpha virt. eigenvalues --    1.29063   1.30326   1.30854   1.31455   1.31787
 Alpha virt. eigenvalues --    1.32287   1.32994   1.33592   1.34457   1.36328
 Alpha virt. eigenvalues --    1.36737   1.37054   1.37917   1.38947   1.39517
 Alpha virt. eigenvalues --    1.40899   1.41632   1.42318   1.42919   1.43890
 Alpha virt. eigenvalues --    1.45870   1.46147   1.46512   1.48245   1.49564
 Alpha virt. eigenvalues --    1.49946   1.50940   1.51264   1.52262   1.53212
 Alpha virt. eigenvalues --    1.54397   1.54626   1.55384   1.55990   1.57457
 Alpha virt. eigenvalues --    1.58222   1.58513   1.59677   1.61566   1.61943
 Alpha virt. eigenvalues --    1.66125   1.66650   1.68294   1.69240   1.69923
 Alpha virt. eigenvalues --    1.70373   1.70997   1.72345   1.73647   1.74533
 Alpha virt. eigenvalues --    1.75704   1.76655   1.77492   1.78253   1.79266
 Alpha virt. eigenvalues --    1.79905   1.80462   1.81074   1.83416   1.84494
 Alpha virt. eigenvalues --    1.84978   1.86044   1.86664   1.87616   1.88363
 Alpha virt. eigenvalues --    1.89408   1.90072   1.90772   1.91703   1.92141
 Alpha virt. eigenvalues --    1.94706   1.95380   1.97908   1.98391   2.01391
 Alpha virt. eigenvalues --    2.02950   2.05933   2.07144   2.08218   2.09922
 Alpha virt. eigenvalues --    2.11667   2.12341   2.14980   2.16039   2.16473
 Alpha virt. eigenvalues --    2.17412   2.17937   2.18819   2.19567   2.19869
 Alpha virt. eigenvalues --    2.20027   2.20993   2.22096   2.22186   2.23560
 Alpha virt. eigenvalues --    2.24298   2.25314   2.26224   2.26891   2.27975
 Alpha virt. eigenvalues --    2.29211   2.30413   2.30834   2.31282   2.32245
 Alpha virt. eigenvalues --    2.32357   2.34474   2.35011   2.37103   2.37486
 Alpha virt. eigenvalues --    2.38716   2.39056   2.39402   2.41441   2.42738
 Alpha virt. eigenvalues --    2.44499   2.45270   2.46034   2.47013   2.47417
 Alpha virt. eigenvalues --    2.48467   2.49623   2.50053   2.50226   2.51740
 Alpha virt. eigenvalues --    2.52362   2.52908   2.54162   2.54867   2.56007
 Alpha virt. eigenvalues --    2.56811   2.57494   2.57987   2.58173   2.59026
 Alpha virt. eigenvalues --    2.59397   2.60141   2.60652   2.62158   2.63865
 Alpha virt. eigenvalues --    2.64032   2.64580   2.65487   2.67171   2.67464
 Alpha virt. eigenvalues --    2.68426   2.70390   2.70650   2.71697   2.73731
 Alpha virt. eigenvalues --    2.74230   2.74251   2.75873   2.77029   2.77359
 Alpha virt. eigenvalues --    2.78290   2.78731   2.79542   2.83745   2.85421
 Alpha virt. eigenvalues --    2.85909   2.86612   2.89323   2.89960   2.92552
 Alpha virt. eigenvalues --    2.96461   2.97848   2.99157   2.99941   3.02791
 Alpha virt. eigenvalues --    3.03292   3.03874   3.06279   3.06637   3.08836
 Alpha virt. eigenvalues --    3.09569   3.10870   3.12125   3.12499   3.13508
 Alpha virt. eigenvalues --    3.14197   3.14902   3.16190   3.17971   3.19293
 Alpha virt. eigenvalues --    3.21193   3.23192   3.23976   3.25671   3.26786
 Alpha virt. eigenvalues --    3.28091   3.28542   3.30325   3.30672   3.31397
 Alpha virt. eigenvalues --    3.35777   3.36898   3.37767   3.39652   3.43233
 Alpha virt. eigenvalues --    3.45559   3.49568   3.50032   3.56580   3.61443
 Alpha virt. eigenvalues --    3.65059   3.69040   3.74718   3.76785   3.81806
 Alpha virt. eigenvalues --    3.92081   3.93262   4.05155   4.53175   4.54845
 Alpha virt. eigenvalues --    4.56159   4.57626   4.59818   4.62861   4.63773
 Alpha virt. eigenvalues --    4.65182   4.66968   4.67725   4.67858   4.71021
 Alpha virt. eigenvalues --    4.71414   4.76249   4.77634   4.79311   4.81172
 Alpha virt. eigenvalues --    4.83047   4.86216   4.88411   4.89345   4.90293
 Alpha virt. eigenvalues --    4.96269   5.01041   5.04860   5.08424   5.10826
 Alpha virt. eigenvalues --    5.18915   5.23480   5.28359   5.37161
          Condensed to atoms (all electrons):
 Mulliken atomic charges:
              1
     1  C   -0.474802
     2  C    0.061369
     3  C   -0.352586
     4  C    0.091356
     5  N   -0.890719
     6  C    0.394107
     7  C   -0.251077
     8  C   -0.169319
     9  C   -0.149099
    10  Cl  -0.034131
    11  C   -0.168063
    12  C   -0.255560
    13  C   -0.037769
    14  C   -0.244136
    15  C    0.033384
    16  C   -0.233369
    17  C   -0.222218
    18  C    0.300380
    19  N   -0.794491
    20  C    0.747215
    21  C   -0.586778
    22  O   -0.608152
    23  C    0.027961
    24  C   -0.238411
    25  C   -0.201316
    26  C   -0.114737
    27  C   -0.201709
    28  C   -0.232523
    29  C    0.739958
    30  O   -0.684437
    31  O   -0.800850
    32  H    0.185946
    33  H    0.163803
    34  H    0.152894
    35  H    0.211910
    36  H    0.167193
    37  H    0.183837
    38  H    0.188584
    39  H    0.372905
    40  H    0.196658
    41  H    0.221755
    42  H    0.231399
    43  H    0.234490
    44  H    0.234605
    45  H    0.216265
    46  H    0.212748
    47  H    0.201972
    48  H    0.198205
    49  H    0.182478
    50  H    0.171366
    51  H    0.231004
    52  H    0.221772
    53  H    0.168728
 Sum of Mulliken charges=  -1.00000
 Atomic charges with hydrogens summed into heavy atoms:
              1
     1  C    0.027842
     2  C    0.273280
     3  C   -0.001555
     4  C    0.279940
     5  N   -0.517814
     6  C    0.394107
     7  C   -0.054419
     8  C    0.052436
     9  C   -0.149099
    10  Cl  -0.034131
    11  C    0.063336
    12  C   -0.021071
    13  C   -0.037769
    14  C   -0.009531
    15  C    0.033384
    16  C   -0.017103
    17  C   -0.009470
    18  C    0.300380
    19  N   -0.794491
    20  C    0.747215
    21  C   -0.004122
    22  O   -0.608152
    23  C    0.027961
    24  C   -0.067045
    25  C    0.029688
    26  C   -0.114737
    27  C    0.020064
    28  C   -0.063794
    29  C    0.739958
    30  O   -0.684437
    31  O   -0.800850
    32  H    0.000000
    33  H    0.000000
    34  H    0.000000
    35  H    0.000000
    36  H    0.000000
    37  H    0.000000
    38  H    0.000000
    39  H    0.000000
    40  H    0.000000
    41  H    0.000000
    42  H    0.000000
    43  H    0.000000
    44  H    0.000000
    45  H    0.000000
    46  H    0.000000
    47  H    0.000000
    48  H    0.000000
    49  H    0.000000
    50  H    0.000000
    51  H    0.000000
    52  H    0.000000
    53  H    0.000000
 Sum of Mulliken charges=  -1.00000
 Entering OneElI...
 OneElI was handed  5886413 working-precision words.
 Multipole integrals L=0 to 4 MinM= 0 MaxM= 0.
 Requested accuracy = 0.1000D-12
 PrsmSu:  NPrtUS=   1 ThrOK=F
 PRISM was handed     5038961 working-precision words and  9317 shell-pairs
 Electronic moments (au):
  -228.00000000    11.07726927     1.51216451    -0.73657459
 -9952.38876189 -6624.20799024 -1291.39632687   -19.43606766
   -10.20767928    -7.94023276 41371.75567048-33852.02232695
  -116.83093682 -6607.33940193 27449.40541164  2047.10707472
 -2903.52627721   408.25557058 -6854.91384031  1592.95497071
******************************-18793.69069196-56791.70424935
-23882.20215425 19569.21208395-49762.36995138 -1405.33290059
  2323.45780871***************-56796.55827564-43280.62298424
 14881.17469762  3790.73232903 12176.46521257
 Electronic spatial extent (au):  <R**2>= 17867.9931
 Nuclear    moments (au):
   227.00000000     0.00000000     0.00000000     0.00000000
  9620.16097784  6463.49614083  1153.74390660     0.00000000
     0.00000000     0.00000000-39271.36218392 33699.60508287
   116.05248107  6646.28015116-26926.06325479 -2085.59751652
  2986.12517116  -385.67134552  6804.97948139 -1592.02005096
***************491151.43107795 14368.40952876 52424.95469271
 22610.33160280-19704.49871169 48821.24312450  1366.05359407
 -2459.21418742111785.74785101 49394.27326911 38633.13788151
-14396.51640505 -3868.94617389-12316.41499297
 Total      moments (au):
    -1.00000000    11.07726927     1.51216451    -0.73657459
  -332.22778405  -160.71184941  -137.65242026   -19.43606766
   -10.20767928    -7.94023276  2100.39348656  -152.41724408
    -0.77845575    38.94074922   523.34215685   -38.49044180
    82.59889394    22.58422506   -49.93435891     0.93491975
-71384.56378872-25588.58427415 -4425.28116320 -4366.74955664
 -1271.87055145  -135.28662775  -941.12682689   -39.27930652
  -135.75637871-11599.92265331 -7402.28500653 -4647.48510273
   484.65829257   -78.21384486  -139.94978040
 Charge=    -1.0000 electrons
 Dipole moment (field-independent basis, Debye):
    X=    28.1556    Y=     3.8435    Z=    -1.8722  Tot=    28.4783
 Quadrupole moment (field-independent basis, Debye-Ang):
   XX=  -446.8577   YY=  -216.1629   ZZ=  -185.1472
   XY=   -26.1422   XZ=   -13.7297   YZ=   -10.6799
 Traceless Quadrupole moment (field-independent basis, Debye-Ang):
   XX=  -164.1351   YY=    66.5597   ZZ=    97.5754
   XY=   -26.1422   XZ=   -13.7297   YZ=   -10.6799
 Octapole moment (field-independent basis, Debye-Ang**2):
  XXX=  1494.9790  YYY=  -108.4847  ZZZ=    -0.5541  XYY=    27.7165
  XXY=   372.4948  XXZ=   -27.3960  XZZ=    58.7907  YZZ=    16.0746
  YYZ=   -35.5414  XYZ=     0.6654
 Hexadecapole moment (field-independent basis, Debye-Ang**3):
 XXXX=-26886.8475 YYYY= -9637.8870 ZZZZ= -1666.7729 XXXY= -1644.7271
 XXXZ=  -479.0474 YYYX=   -50.9554 YYYZ=  -354.4735 ZZZX=   -14.7945
 ZZZY=   -51.1324 XXYY= -4369.0867 XXZZ= -2788.0553 YYZZ= -1750.4656
 XXYZ=   182.5455 YYXZ=   -29.4591 ZZXY=   -52.7118
 N-N= 3.019524359501D+03 E-N=-1.017738917200D+04  KE= 1.751851086435D+03
 Entering OneElI...
 OneElI was handed  5358237 working-precision words.
 Calculate electrostatic properties
    NBasis =   513  MinDer = 0  MaxDer = 0
    NGrid  =    53  NMatD  =   1
 Requested accuracy = 0.1000D-12
 PrsmSu:  NPrtUS=   1 ThrOK=F
 PRISM was handed     4600537 working-precision words and  7990 shell-pairs
 --------------------------------------------------------
       Center         ----      EFG at Nuclei      ----
                      3XX-RR        3YY-RR        3ZZ-RR
 --------------------------------------------------------
     1   Atom        0.015691     -0.012574     -0.003117
     2   Atom        0.092317      0.072083     -0.164400
     3   Atom        0.002865      0.008623     -0.011488
     4   Atom        0.037986     -0.088318      0.050332
     5   Atom        0.941311     -0.316896     -0.624415
     6   Atom       -0.280848      0.063708      0.217140
     7   Atom       -0.167713      0.121100      0.046613
     8   Atom       -0.260506      0.140899      0.119607
     9   Atom       -0.053731     -0.107786      0.161516
    10   Atom        1.012071     -1.608952      0.596881
    11   Atom       -0.266491      0.162336      0.104155
    12   Atom       -0.217026      0.104549      0.112478
    13   Atom        0.176148      0.009914     -0.186062
    14   Atom        0.155882      0.059424     -0.215307
    15   Atom        0.182671      0.076142     -0.258813
    16   Atom        0.168124      0.066678     -0.234801
    17   Atom        0.207275     -0.005553     -0.201722
    18   Atom       -0.129808      0.184871     -0.055063
    19   Atom       -0.495540      0.857939     -0.362399
    20   Atom        0.307349     -0.440696      0.133347
    21   Atom        0.056367     -0.006587     -0.049779
    22   Atom       -0.804869     -0.595283      1.400152
    23   Atom        0.042337     -0.103767      0.061430
    24   Atom        0.211692     -0.178688     -0.033004
    25   Atom        0.193281     -0.194063      0.000783
    26   Atom        0.270530     -0.239168     -0.031362
    27   Atom        0.190403     -0.195996      0.005593
    28   Atom        0.191211     -0.168347     -0.022865
    29   Atom        0.181398     -0.390057      0.208659
    30   Atom        0.946489     -0.546953     -0.399536
    31   Atom        0.589165     -0.258415     -0.330751
    32   Atom        0.080199     -0.108747      0.028548
    33   Atom       -0.198446      0.111398      0.087049
    34   Atom       -0.016650      0.118509     -0.101859
    35   Atom       -0.214943      0.106833      0.108110
    36   Atom        0.058413      0.103741     -0.162154
    37   Atom       -0.088455     -0.034178      0.122633
    38   Atom        0.034281      0.088790     -0.123071
    39   Atom        0.226685      0.169959     -0.396644
    40   Atom        0.141775      0.143332     -0.285107
    41   Atom        0.166373     -0.212852      0.046480
    42   Atom        0.129472      0.145332     -0.274804
    43   Atom        0.166516     -0.206864      0.040348
    44   Atom        0.077558     -0.131535      0.053977
    45   Atom       -0.012682     -0.098812      0.111493
    46   Atom        0.076200     -0.163762      0.087562
    47   Atom       -0.040830      0.109450     -0.068620
    48   Atom        0.041838     -0.133527      0.091689
    49   Atom       -0.037940     -0.083010      0.120950
    50   Atom        0.063891      0.036629     -0.100520
    51   Atom        0.024792      0.047385     -0.072178
    52   Atom        0.078167      0.028758     -0.106925
    53   Atom        0.005481      0.067781     -0.073261
 --------------------------------------------------------
                        XY            XZ            YZ
 --------------------------------------------------------
     1   Atom       -0.007199      0.018449     -0.034148
     2   Atom       -0.024205      0.205895      0.112651
     3   Atom        0.026231      0.009017      0.012070
     4   Atom        0.116815     -0.056698      0.140108
     5   Atom        0.767727     -0.216019     -0.113612
     6   Atom       -0.051686     -0.108872     -0.184415
     7   Atom       -0.103696     -0.076051     -0.012064
     8   Atom       -0.109506     -0.146826      0.001184
     9   Atom        0.128339      0.020038     -0.310299
    10   Atom        1.550630      0.907785     -2.000508
    11   Atom       -0.122988     -0.141680     -0.014752
    12   Atom       -0.075144     -0.077417     -0.000361
    13   Atom       -0.010375      0.032772     -0.194587
    14   Atom        0.018803     -0.007036     -0.203090
    15   Atom       -0.000697      0.001025     -0.238445
    16   Atom       -0.026335      0.014871     -0.186171
    17   Atom        0.002422     -0.023611     -0.167380
    18   Atom        0.053491     -0.010791     -0.196128
    19   Atom        0.121810      0.061146      0.459963
    20   Atom       -0.058002     -0.130023     -0.229667
    21   Atom       -0.007100      0.027724      0.017330
    22   Atom       -0.003958      0.060862     -0.776632
    23   Atom        0.002375     -0.019603     -0.231177
    24   Atom        0.011087     -0.036129     -0.172893
    25   Atom       -0.022852      0.005334     -0.293166
    26   Atom       -0.015719      0.005618     -0.293327
    27   Atom        0.015527     -0.021772     -0.278545
    28   Atom       -0.035332      0.037468     -0.177498
    29   Atom       -0.010401      0.005299     -0.308088
    30   Atom        0.334514     -0.885600     -0.071781
    31   Atom       -0.483332      1.132496      0.057775
    32   Atom        0.140647     -0.092597      0.174956
    33   Atom       -0.115766     -0.153292     -0.054846
    34   Atom       -0.074109      0.213505      0.086284
    35   Atom       -0.124553     -0.097314     -0.034080
    36   Atom       -0.056898     -0.172287     -0.117244
    37   Atom       -0.206401      0.085610      0.076954
    38   Atom       -0.072361     -0.179163     -0.119243
    39   Atom        0.034029     -0.065386     -0.024303
    40   Atom       -0.004769      0.127430      0.038055
    41   Atom        0.024319     -0.004280      0.194476
    42   Atom       -0.004673      0.131216      0.034642
    43   Atom        0.026636      0.000623      0.191647
    44   Atom        0.138962     -0.089954      0.182842
    45   Atom       -0.197348      0.095230      0.126873
    46   Atom        0.144876     -0.084637      0.166237
    47   Atom        0.091414     -0.202654      0.099539
    48   Atom        0.180846      0.083628     -0.122186
    49   Atom       -0.219120     -0.065850     -0.064285
    50   Atom        0.107962     -0.146181      0.196768
    51   Atom       -0.123427      0.172446      0.162204
    52   Atom        0.103077     -0.141632      0.189842
    53   Atom       -0.121210      0.180769      0.165321
 --------------------------------------------------------


 ---------------------------------------------------------------------------------
              Nuclear Quadrupole in Principal Axis System
 ---------------------------------------------------------------------------------

       Atom             a.u.   MegaHertz   Gauss  10(-4) cm-1        Axes

              Baa    -0.0432    -5.790    -2.066    -1.931 -0.1232  0.7263  0.6763
     1 C(13)  Bbb     0.0024     0.318     0.113     0.106  0.7874  0.4863 -0.3788
              Bcc     0.0408     5.472     1.953     1.825  0.6040 -0.4858  0.6318
 
              Baa    -0.3106   -41.681   -14.873   -13.903 -0.4503 -0.2782  0.8484
     2 C(13)  Bbb     0.0946    12.697     4.531     4.235 -0.3733  0.9218  0.1042
              Bcc     0.2160    28.984    10.342     9.668  0.8111  0.2698  0.5189
 
              Baa    -0.0210    -2.816    -1.005    -0.939 -0.6734  0.6970 -0.2464
     3 C(13)  Bbb    -0.0158    -2.122    -0.757    -0.708 -0.3833 -0.0442  0.9225
              Bcc     0.0368     4.938     1.762     1.647  0.6321  0.7157  0.2969
 
              Baa    -0.2362   -31.702   -11.312   -10.575 -0.4266  0.7763 -0.4640
     4 C(13)  Bbb     0.0953    12.790     4.564     4.266  0.8670  0.2051 -0.4541
              Bcc     0.1409    18.912     6.748     6.308  0.2574  0.5960  0.7606
 
              Baa    -0.6839   -26.377    -9.412    -8.798 -0.3677  0.8705  0.3272
     5 N(14)  Bbb    -0.6512   -25.116    -8.962    -8.378  0.2466 -0.2479  0.9369
              Bcc     1.3351    51.492    18.374    17.176  0.8966  0.4252 -0.1235
 
              Baa    -0.3266   -43.827   -15.639   -14.619  0.9292  0.2512  0.2712
     6 C(13)  Bbb    -0.0199    -2.674    -0.954    -0.892 -0.3552  0.8099  0.4668
              Bcc     0.3465    46.501    16.593    15.511 -0.1024 -0.5301  0.8417
 
              Baa    -0.2226   -29.874   -10.660    -9.965  0.9185  0.2867  0.2723
     7 C(13)  Bbb     0.0666     8.944     3.191     2.983 -0.2188 -0.2052  0.9540
              Bcc     0.1560    20.930     7.468     6.982 -0.3293  0.9358  0.1258
 
              Baa    -0.3332   -44.716   -15.956   -14.916  0.9294  0.2139  0.3008
     8 C(13)  Bbb     0.1308    17.555     6.264     5.856  0.0587  0.7189 -0.6926
              Bcc     0.2024    27.161     9.692     9.060 -0.3644  0.6614  0.6556
 
              Baa    -0.3580   -48.039   -17.142   -16.024 -0.3664  0.7925  0.4875
     9 C(13)  Bbb    -0.0142    -1.909    -0.681    -0.637  0.9212  0.2351  0.3101
              Bcc     0.3722    49.948    17.823    16.661 -0.1311 -0.5627  0.8162
 
              Baa    -3.5051  -183.451   -65.460   -61.193 -0.3696  0.8003  0.4721
    10 Cl(35) Bbb     1.7260    90.335    32.234    30.132  0.9223  0.2542  0.2911
              Bcc     1.7791    93.116    33.226    31.060 -0.1129 -0.5430  0.8321
 
              Baa    -0.3436   -46.104   -16.451   -15.378  0.9248  0.2336  0.3003
    11 C(13)  Bbb     0.1402    18.815     6.713     6.276 -0.1823 -0.4208  0.8886
              Bcc     0.2034    27.289     9.737     9.103 -0.3340  0.8766  0.3466
 
              Baa    -0.2496   -33.489   -11.950   -11.171  0.9574  0.2034  0.2049
    12 C(13)  Bbb     0.1083    14.535     5.186     4.848 -0.0366  0.7896 -0.6125
              Bcc     0.1412    18.954     6.763     6.322 -0.2864  0.5789  0.7634
 
              Baa    -0.3070   -41.195   -14.699   -13.741 -0.0466  0.5216  0.8519
    13 C(13)  Bbb     0.1183    15.877     5.665     5.296  0.4034  0.7901 -0.4616
              Bcc     0.1887    25.318     9.034     8.445  0.9139 -0.3221  0.2472
 
              Baa    -0.3231   -43.362   -15.473   -14.464 -0.0054  0.4691  0.8831
    14 C(13)  Bbb     0.1409    18.903     6.745     6.305  0.7981 -0.5300  0.2865
              Bcc     0.1823    24.459     8.727     8.159  0.6025  0.7064 -0.3715
 
              Baa    -0.3827   -51.357   -18.326   -17.131 -0.0010  0.4611  0.8873
    15 C(13)  Bbb     0.1826    24.504     8.743     8.174  0.9980  0.0559 -0.0279
              Bcc     0.2001    26.854     9.582     8.957 -0.0624  0.8856 -0.4603
 
              Baa    -0.3236   -43.426   -15.496   -14.485 -0.0043  0.4303  0.9027
    16 C(13)  Bbb     0.1310    17.576     6.272     5.863  0.6304  0.7019 -0.3316
              Bcc     0.1926    25.850     9.224     8.623  0.7763 -0.5676  0.2742
 
              Baa    -0.2984   -40.039   -14.287   -13.356  0.0381  0.4957  0.8677
    17 C(13)  Bbb     0.0888    11.911     4.250     3.973 -0.1151  0.8647 -0.4889
              Bcc     0.2096    28.128    10.037     9.383  0.9926  0.0812 -0.0900
 
              Baa    -0.1726   -23.159    -8.264    -7.725 -0.4118  0.4849  0.7715
    18 C(13)  Bbb    -0.1285   -17.244    -6.153    -5.752  0.9034  0.1059  0.4156
              Bcc     0.3011    40.402    14.417    13.477  0.1198  0.8681 -0.4817
 
              Baa    -0.5317   -20.506    -7.317    -6.840 -0.6207 -0.1968  0.7589
    19 N(14)  Bbb    -0.4922   -18.983    -6.773    -6.332  0.7790 -0.2640  0.5687
              Bcc     1.0239    39.488    14.090    13.172  0.0885  0.9442  0.3172
 
              Baa    -0.5328   -71.503   -25.514   -23.851  0.1176  0.9315  0.3441
    20 C(13)  Bbb     0.1511    20.276     7.235     6.763  0.5175 -0.3532  0.7794
              Bcc     0.3818    51.227    18.279    17.088  0.8476  0.0864 -0.5236
 
              Baa    -0.0627    -8.414    -3.002    -2.807 -0.2330 -0.3137  0.9205
    21 C(13)  Bbb    -0.0006    -0.078    -0.028    -0.026 -0.0348  0.9486  0.3145
              Bcc     0.0633     8.492     3.030     2.833  0.9718 -0.0412  0.2320
 
              Baa    -0.8662    62.678    22.365    20.907 -0.2581  0.9118  0.3194
    22 O(17)  Bbb    -0.8020    58.031    20.707    19.357  0.9658  0.2516  0.0621
              Bcc     1.6682  -120.709   -43.072   -40.264  0.0238 -0.3245  0.9456
 
              Baa    -0.2669   -35.821   -12.782   -11.949  0.0303  0.8165  0.5766
    23 C(13)  Bbb     0.0410     5.498     1.962     1.834  0.9951 -0.0791  0.0597
              Bcc     0.2260    30.323    10.820    10.115 -0.0944 -0.5720  0.8148
 
              Baa    -0.2937   -39.410   -14.062   -13.146  0.0214  0.8318  0.5546
    24 C(13)  Bbb     0.0724     9.711     3.465     3.239  0.2511 -0.5415  0.8023
              Bcc     0.2213    29.699    10.598     9.907  0.9677  0.1221 -0.2205
 
              Baa    -0.4060   -54.477   -19.439   -18.172  0.0257  0.8111  0.5843
    25 C(13)  Bbb     0.1830    24.556     8.762     8.191  0.8557  0.2843 -0.4323
              Bcc     0.2230    29.921    10.676     9.980  0.5168 -0.5111  0.6868
 
              Baa    -0.4466   -59.927   -21.383   -19.989  0.0134  0.8168  0.5768
    26 C(13)  Bbb     0.1740    23.348     8.331     7.788 -0.1399 -0.5697  0.8099
              Bcc     0.2726    36.579    13.052    12.201  0.9901 -0.0915  0.1066
 
              Baa    -0.3914   -52.525   -18.742   -17.520 -0.0004  0.8186  0.5743
    27 C(13)  Bbb     0.1684    22.604     8.066     7.540  0.7729 -0.3642  0.5196
              Bcc     0.2230    29.921    10.677     9.981  0.6345  0.4441 -0.6326
 
              Baa    -0.2876   -38.591   -13.770   -12.873  0.0179  0.8316  0.5551
    28 C(13)  Bbb     0.0742     9.957     3.553     3.321 -0.3977 -0.5034  0.7671
              Bcc     0.2134    28.634    10.217     9.551  0.9174 -0.2345  0.3217
 
              Baa    -0.5204   -69.826   -24.916   -23.292  0.0107  0.9211  0.3892
    29 C(13)  Bbb     0.1810    24.285     8.665     8.101  0.9983  0.0121 -0.0562
              Bcc     0.3394    45.541    16.250    15.191  0.0565 -0.3891  0.9194
 
              Baa    -0.8652    62.608    22.340    20.884  0.4631 -0.2985  0.8346
    30 O(17)  Bbb    -0.5759    41.674    14.870    13.901 -0.0083  0.9401  0.3408
              Bcc     1.4412  -104.282   -37.210   -34.785  0.8863  0.1648 -0.4328
 
              Baa    -1.2061    87.270    31.140    29.110 -0.5656 -0.3344  0.7538
    31 O(17)  Bbb    -0.2277    16.480     5.880     5.497 -0.0105  0.9169  0.3989
              Bcc     1.4338  -103.750   -37.020   -34.607  0.8246 -0.2177  0.5221
 
              Baa    -0.3022  -161.229   -57.531   -53.780 -0.4030  0.7575 -0.5136
    32 H(1)   Bbb     0.1470    78.429    27.986    26.161 -0.2938  0.4243  0.8565
              Bcc     0.1552    82.800    29.545    27.619  0.8667  0.4961  0.0516
 
              Baa    -0.3046  -162.507   -57.987   -54.207  0.8753  0.2942  0.3838
    33 H(1)   Bbb     0.1481    79.023    28.197    26.359 -0.4501  0.7860  0.4239
              Bcc     0.1565    83.484    29.789    27.847 -0.1770 -0.5438  0.8204
 
              Baa    -0.3073  -163.979   -58.512   -54.698 -0.6138 -0.2580  0.7461
    34 H(1)   Bbb     0.1483    79.106    28.227    26.387  0.0247  0.9384  0.3448
              Bcc     0.1591    84.873    30.285    28.311  0.7891 -0.2301  0.5696
 
              Baa    -0.2846  -151.845   -54.182   -50.650  0.9151  0.3133  0.2539
    35 H(1)   Bbb     0.1351    72.105    25.729    24.052 -0.2569 -0.0327  0.9659
              Bcc     0.1495    79.740    28.453    26.598 -0.3109  0.9491 -0.0505
 
              Baa    -0.2986  -159.296   -56.841   -53.135  0.4529  0.3079  0.8367
    36 H(1)   Bbb     0.1423    75.936    27.096    25.329 -0.5709  0.8210  0.0069
              Bcc     0.1562    83.360    29.745    27.806  0.6848  0.4808 -0.5476
 
              Baa    -0.3008  -160.485   -57.265   -53.532  0.7249  0.6369 -0.2623
    37 H(1)   Bbb     0.1466    78.225    27.913    26.093 -0.6849  0.7073 -0.1752
              Bcc     0.1542    82.260    29.352    27.439  0.0740  0.3067  0.9489
 
              Baa    -0.2912  -155.381   -55.444   -51.829  0.5103  0.3444  0.7880
    38 H(1)   Bbb     0.1385    73.880    26.362    24.644 -0.4470  0.8890 -0.0991
              Bcc     0.1527    81.500    29.081    27.186  0.7347  0.3016 -0.6076
 
              Baa    -0.4042  -215.649   -76.949   -71.933  0.1011  0.0361  0.9942
    39 H(1)   Bbb     0.1541    82.208    29.334    27.422 -0.4174  0.9087  0.0095
              Bcc     0.2501   133.441    47.615    44.511  0.9031  0.4159 -0.1069
 
              Baa    -0.3233  -172.519   -61.559   -57.546 -0.2641 -0.0811  0.9611
    40 H(1)   Bbb     0.1455    77.609    27.693    25.887 -0.1873  0.9818  0.0313
              Bcc     0.1779    94.910    33.866    31.659  0.9461  0.1718  0.2745
 
              Baa    -0.3181  -169.703   -60.554   -56.607 -0.0484  0.8810 -0.4706
    41 H(1)   Bbb     0.1476    78.744    28.098    26.266 -0.3597  0.4242  0.8311
              Bcc     0.1705    90.959    32.456    30.341  0.9318  0.2095  0.2964
 
              Baa    -0.3162  -168.733   -60.208   -56.283 -0.2823 -0.0746  0.9564
    42 H(1)   Bbb     0.1466    78.221    27.911    26.092 -0.2495  0.9684  0.0019
              Bcc     0.1696    90.512    32.297    30.191  0.9263  0.2381  0.2920
 
              Baa    -0.3124  -166.694   -59.481   -55.603 -0.0482  0.8777 -0.4767
    43 H(1)   Bbb     0.1387    74.004    26.406    24.685 -0.4166  0.4161  0.8083
              Bcc     0.1737    92.690    33.074    30.918  0.9078  0.2376  0.3456
 
              Baa    -0.3138  -167.423   -59.741   -55.846 -0.3895  0.7832 -0.4847
    44 H(1)   Bbb     0.1469    78.357    27.960    26.137  0.9050  0.4231 -0.0437
              Bcc     0.1669    89.066    31.781    29.709 -0.1708  0.4556  0.8736
 
              Baa    -0.3165  -168.859   -60.253   -56.325  0.5850  0.7329 -0.3474
    45 H(1)   Bbb     0.1452    77.485    27.649    25.846  0.8090 -0.5580  0.1850
              Bcc     0.1713    91.374    32.604    30.479  0.0583  0.3893  0.9193
 
              Baa    -0.3177  -169.503   -60.483   -56.540 -0.3914  0.8198 -0.4180
    46 H(1)   Bbb     0.1434    76.509    27.300    25.521  0.8579  0.4894  0.1566
              Bcc     0.1743    92.994    33.183    31.019 -0.3329  0.2974  0.8948
 
              Baa    -0.3022  -161.250   -57.538   -53.787  0.6479 -0.3119  0.6950
    47 H(1)   Bbb     0.1482    79.074    28.216    26.376  0.7583  0.1769 -0.6275
              Bcc     0.1540    82.176    29.322    27.411  0.0728  0.9335  0.3511
 
              Baa    -0.3024  -161.335   -57.568   -53.815 -0.5009  0.7909  0.3515
    48 H(1)   Bbb     0.1443    77.001    27.476    25.685 -0.2235 -0.5106  0.8303
              Bcc     0.1581    84.333    30.092    28.131  0.8361  0.3374  0.4325
 
              Baa    -0.3008  -160.469   -57.259   -53.527  0.6566  0.7236  0.2128
    49 H(1)   Bbb     0.1394    74.361    26.534    24.804  0.0611 -0.3323  0.9412
              Bcc     0.1614    86.108    30.725    28.722  0.7518 -0.6050 -0.2624
 
              Baa    -0.3252  -173.500   -61.909   -57.873  0.4232 -0.5271  0.7370
    50 H(1)   Bbb     0.1484    79.188    28.256    26.414  0.9007  0.1562 -0.4055
              Bcc     0.1768    94.312    33.653    31.459  0.0986  0.8353  0.5408
 
              Baa    -0.3169  -169.070   -60.328   -56.396 -0.5273 -0.4883  0.6953
    51 H(1)   Bbb     0.1554    82.923    29.589    27.660  0.7770  0.0541  0.6272
              Bcc     0.1615    86.147    30.739    28.736 -0.3439  0.8710  0.3509
 
              Baa    -0.3181  -169.724   -60.562   -56.614  0.4043 -0.5286  0.7464
    52 H(1)   Bbb     0.1548    82.594    29.472    27.550  0.8712 -0.0258 -0.4902
              Bcc     0.1633    87.130    31.090    29.063  0.2784  0.8484  0.4502
 
              Baa    -0.3256  -173.704   -61.982   -57.941 -0.5494 -0.4619  0.6963
    53 H(1)   Bbb     0.1485    79.239    28.274    26.431  0.8347 -0.2660  0.4821
              Bcc     0.1770    94.465    33.708    31.510 -0.0375  0.8461  0.5317
 

 ---------------------------------------------------------------------------------

 No NMR shielding tensors so no spin-rotation constants.
 Leave Link  601 at Thu Sep 24 10:47:15 2015, MaxMem=    6291456 cpu:       1.2
 Merz-Kollman atomic radii used.
 Atom Element Radius
    1     6    1.50
    2     6    1.50
    3     6    1.50
    4     6    1.50
    5     7    1.50
    6     6    1.50
    7     6    1.50
    8     6    1.50
    9     6    1.50
   10    17    1.70
   11     6    1.50
   12     6    1.50
   13     6    1.50
   14     6    1.50
   15     6    1.50
   16     6    1.50
   17     6    1.50
   18     6    1.50
   19     7    1.50
   20     6    1.50
   21     6    1.50
   22     8    1.40
   23     6    1.50
   24     6    1.50
   25     6    1.50
   26     6    1.50
   27     6    1.50
   28     6    1.50
   29     6    1.50
   30     8    1.40
   31     8    1.40
   32     1    1.20
   33     1    1.20
   34     1    1.20
   35     1    1.20
   36     1    1.20
   37     1    1.20
   38     1    1.20
   39     1    1.20
   40     1    1.20
   41     1    1.20
   42     1    1.20
   43     1    1.20
   44     1    1.20
   45     1    1.20
   46     1    1.20
   47     1    1.20
   48     1    1.20
   49     1    1.20
   50     1    1.20
   51     1    1.20
   52     1    1.20
   53     1    1.20
 Generate VDW surfaces: Layer= 4 Dens= 6 Start= 1.400 Inc= 0.200

 **********************************************************************

            Electrostatic Properties Using The SCF Density

 **********************************************************************

[...]
 **** Fit      -0.050734
 **** Fit      -0.082720
 **** Fit      -0.075487
 **** Fit      -0.069609
 **** Fit      -0.064838
 **** Fit      -0.060973
 **** Fit      -0.057834
 **** Fit      -0.055240
 **** Fit      -0.052984
 **** Fit      -0.082283
 **** Fit      -0.075226
 **** Fit      -0.069529
 **** Fit      -0.064965
 **** Fit      -0.061340
 **** Fit      -0.058478
 **** Fit      -0.056206
 **** Fit      -0.089481
 **** Fit      -0.081464
 **** Fit      -0.074910
 **** Fit      -0.069638
 **** Fit      -0.065475
 **** Fit      -0.062265
 **** Fit      -0.059866
 **** Fit      -0.086227
 **** Fit      -0.078970
 **** Fit      -0.073117
 **** Fit      -0.068564
 **** Fit      -0.065189
 **** Fit      -0.083140
 **** Fit      -0.076878
 **** Fit      -0.072012
 **** Fit      -0.045312
 **** Fit      -0.046359
 **** Fit      -0.043631
 **** Fit      -0.041007
 **** Fit      -0.047933
 **** Fit      -0.045560
 **** Fit      -0.043264
 **** Fit      -0.041082
 **** Fit      -0.038999
 **** Fit      -0.047088
 **** Fit      -0.045151
 **** Fit      -0.043204
 **** Fit      -0.041375
 **** Fit      -0.039730
 **** Fit      -0.038260
 **** Fit      -0.046282
 **** Fit      -0.044479
 **** Fit      -0.042726
 **** Fit      -0.041171
 **** Fit      -0.039889
 **** Fit      -0.038908
 **** Fit      -0.038208
 **** Fit      -0.047611
 **** Fit      -0.045955
 **** Fit      -0.044248
 **** Fit      -0.042700
 **** Fit      -0.041430
 **** Fit      -0.040507
 **** Fit      -0.039974
 **** Fit      -0.039849
 **** Fit      -0.048277
 **** Fit      -0.046539
 **** Fit      -0.044864
 **** Fit      -0.043424
 **** Fit      -0.042318
 **** Fit      -0.041613
 **** Fit      -0.041359
 **** Fit      -0.041589
 **** Fit      -0.042303
 **** Fit      -0.050514
 **** Fit      -0.048563
 **** Fit      -0.046702
 **** Fit      -0.045111
 **** Fit      -0.043898
 **** Fit      -0.043136
 **** Fit      -0.042884
 **** Fit      -0.043187
 **** Fit      -0.044071
 **** Fit      -0.051813
 **** Fit      -0.049541
 **** Fit      -0.047589
 **** Fit      -0.046063
 **** Fit      -0.045041
 **** Fit      -0.044586
 **** Fit      -0.044751
 **** Fit      -0.045582
 **** Fit      -0.047098
 **** Fit      -0.050643
 **** Fit      -0.048712
 **** Fit      -0.047345
 **** Fit      -0.046594
 **** Fit      -0.046512
 **** Fit      -0.047156
 **** Fit      -0.048585
 **** Fit      -0.050962
 **** Fit      -0.049409
 **** Fit      -0.048645
 **** Fit      -0.048727
 **** Fit      -0.049741
 **** Fit      -0.051690
 **** Fit      -0.050894
 **** Fit      -0.041455
 **** Fit      -0.041332
 **** Fit      -0.041406
 **** Fit      -0.041748
 **** Fit      -0.041946
 **** Fit      -0.041677
 **** Fit      -0.041410
 **** Fit      -0.041670
 **** Fit      -0.041586
 **** Fit      -0.041579
 **** Fit      -0.041803
 **** Fit      -0.042230
 **** Fit      -0.042623
 **** Fit      -0.042709
 **** Fit      -0.042428
 **** Fit      -0.042005
 **** Fit      -0.041724
 **** Fit      -0.041659
 **** Fit      -0.041689
 **** Fit      -0.042571
 **** Fit      -0.042400
 **** Fit      -0.042168
 **** Fit      -0.042018
 **** Fit      -0.042071
 **** Fit      -0.042364
 **** Fit      -0.042829
 **** Fit      -0.042094
 **** Fit      -0.042083
 **** Fit      -0.042243
 **** Fit      -0.042453
 **** Fit      -0.042590
 **** Fit      -0.044158
 **** Fit      -0.043901
 **** Fit      -0.043488
 **** Fit      -0.043048
 **** Fit      -0.042717
 **** Fit      -0.042600
 **** Fit      -0.042744
 **** Fit      -0.043119
 **** Fit      -0.042709
 **** Fit      -0.043129
 **** Fit      -0.043588
 **** Fit      -0.043973
 **** Fit      -0.044184
 **** Fit      -0.046595
 **** Fit      -0.046230
 **** Fit      -0.045610
 **** Fit      -0.044866
 **** Fit      -0.044146
 **** Fit      -0.043586
 **** Fit      -0.043281
 **** Fit      -0.043270
 **** Fit      -0.043531
 **** Fit      -0.043426
 **** Fit      -0.044191
 **** Fit      -0.044998
 **** Fit      -0.045747
 **** Fit      -0.046325
 **** Fit      -0.046629
 **** Fit      -0.050120
 **** Fit      -0.049630
 **** Fit      -0.048772
 **** Fit      -0.047684
 **** Fit      -0.046526
 **** Fit      -0.045456
 **** Fit      -0.044596
 **** Fit      -0.044030
 **** Fit      -0.043790
 **** Fit      -0.045427
 **** Fit      -0.046684
 **** Fit      -0.047897
 **** Fit      -0.048961
 **** Fit      -0.049754
 **** Fit      -0.050163
 **** Fit      -0.055096
 **** Fit      -0.054392
 **** Fit      -0.053132
 **** Fit      -0.051498
 **** Fit      -0.049708
 **** Fit      -0.047969
 **** Fit      -0.046448
 **** Fit      -0.045260
 **** Fit      -0.044468
 **** Fit      -0.049891
 **** Fit      -0.051722
 **** Fit      -0.053320
 **** Fit      -0.054512
 **** Fit      -0.055136
 **** Fit      -0.062122
 **** Fit      -0.061117
 **** Fit      -0.059291
 **** Fit      -0.056898
 **** Fit      -0.054233
 **** Fit      -0.051576
 **** Fit      -0.049150
 **** Fit      -0.047109
 **** Fit      -0.054442
 **** Fit      -0.057120
 **** Fit      -0.059465
 **** Fit      -0.061224
 **** Fit      -0.062157
 **** Fit      -0.060231
 **** Fit      -0.056184
 **** Fit      -0.052454
 **** Fit      -0.046265
 **** Fit      -0.047244
 **** Fit      -0.047575
 **** Fit      -0.045747
 **** Fit      -0.046988
 **** Fit      -0.048262
 **** Fit      -0.049176
 **** Fit      -0.049418
 **** Fit      -0.048897
 **** Fit      -0.045450
 **** Fit      -0.046737
 **** Fit      -0.048334
 **** Fit      -0.049926
 **** Fit      -0.051149
 **** Fit      -0.051722
 **** Fit      -0.051521
 **** Fit      -0.050587
 **** Fit      -0.044441
 **** Fit      -0.045284
 **** Fit      -0.046727
 **** Fit      -0.048656
 **** Fit      -0.050762
 **** Fit      -0.052660
 **** Fit      -0.054008
 **** Fit      -0.054581
 **** Fit      -0.054296
 **** Fit      -0.053204
 **** Fit      -0.044044
 **** Fit      -0.044889
 **** Fit      -0.046484
 **** Fit      -0.048743
 **** Fit      -0.051360
 **** Fit      -0.053925
 **** Fit      -0.056062
 **** Fit      -0.057494
 **** Fit      -0.058052
 **** Fit      -0.057679
 **** Fit      -0.056426
 **** Fit      -0.054423
 **** Fit      -0.043190
 **** Fit      -0.043623
 **** Fit      -0.044996
 **** Fit      -0.047402
 **** Fit      -0.050596
 **** Fit      -0.054066
 **** Fit      -0.057290
 **** Fit      -0.059879
 **** Fit      -0.061584
 **** Fit      -0.062251
 **** Fit      -0.061811
 **** Fit      -0.060278
 **** Fit      -0.057769
 **** Fit      -0.042152
 **** Fit      -0.043020
 **** Fit      -0.045244
 **** Fit      -0.048819
 **** Fit      -0.053183
 **** Fit      -0.057579
 **** Fit      -0.061441
 **** Fit      -0.064457
 **** Fit      -0.066474
 **** Fit      -0.040550
 **** Fit      -0.053020
 **** Fit      -0.058799
 **** Fit      -0.063911
 **** Fit      -0.067987
 **** Fit      -0.042548
 **** Fit      -0.043279
 **** Fit      -0.042206
 **** Fit      -0.041606
 **** Fit      -0.041589
 **** Fit      -0.042091
 **** Fit      -0.045018
 **** Fit      -0.043492
 **** Fit      -0.042192
 **** Fit      -0.041319
 **** Fit      -0.040981
 **** Fit      -0.041207
 **** Fit      -0.041946
 **** Fit      -0.046262
 **** Fit      -0.044404
 **** Fit      -0.042748
 **** Fit      -0.041481
 **** Fit      -0.040706
 **** Fit      -0.040474
 **** Fit      -0.040802
 **** Fit      -0.041673
 **** Fit      -0.043016
 **** Fit      -0.047666
 **** Fit      -0.045458
 **** Fit      -0.043485
 **** Fit      -0.041900
 **** Fit      -0.040779
 **** Fit      -0.040156
 **** Fit      -0.040052
 **** Fit      -0.040478
 **** Fit      -0.041438
 **** Fit      -0.042922
 **** Fit      -0.044881
 **** Fit      -0.048881
 **** Fit      -0.046127
 **** Fit      -0.043783
 **** Fit      -0.041955
 **** Fit      -0.040659
 **** Fit      -0.039889
 **** Fit      -0.039645
 **** Fit      -0.039936
 **** Fit      -0.040781
 **** Fit      -0.042207
 **** Fit      -0.044240
 **** Fit      -0.046891
 **** Fit      -0.046489
 **** Fit      -0.043782
 **** Fit      -0.041788
 **** Fit      -0.040420
 **** Fit      -0.039601
 **** Fit      -0.039290
 **** Fit      -0.039483
 **** Fit      -0.040201
 **** Fit      -0.041487
 **** Fit      -0.043406
 **** Fit      -0.046041
 **** Fit      -0.049492
 **** Fit      -0.039270
 **** Fit      -0.038880
 **** Fit      -0.038950
 **** Fit      -0.039487
 **** Fit      -0.040538
 **** Fit      -0.042183
 **** Fit      -0.044536
 **** Fit      -0.047759
 **** Fit      -0.038049
 **** Fit      -0.038401
 **** Fit      -0.039144
 **** Fit      -0.040362
 **** Fit      -0.042182
 **** Fit      -0.044778
 **** Fit      -0.048408
 **** Fit      -0.038276
 **** Fit      -0.039693
 **** Fit      -0.041602
 **** Fit      -0.044262
 **** Fit      -0.048023
 **** Fit      -0.040772
 **** Fit      -0.043443
 **** Fit      -0.047102
 **** Fit      -0.041068
 **** Fit      -0.073756
 **** Fit      -0.071185
 **** Fit      -0.074366
 **** Fit      -0.077379
 **** Fit      -0.077024
 **** Fit      -0.073647
 **** Fit      -0.070798
 **** Fit      -0.069314
 **** Fit      -0.071979
 **** Fit      -0.075482
 **** Fit      -0.079080
 **** Fit      -0.081745
 **** Fit      -0.082488
 **** Fit      -0.080990
 **** Fit      -0.077842
 **** Fit      -0.074041
 **** Fit      -0.070612
 **** Fit      -0.068432
 **** Fit      -0.068004
 **** Fit      -0.068177
 **** Fit      -0.070577
 **** Fit      -0.073605
 **** Fit      -0.077113
 **** Fit      -0.080827
 **** Fit      -0.084297
 **** Fit      -0.087700
 **** Fit      -0.085628
 **** Fit      -0.082503
 **** Fit      -0.078809
 **** Fit      -0.074950
 **** Fit      -0.071360
 **** Fit      -0.068456
 **** Fit      -0.066584
 **** Fit      -0.065954
 **** Fit      -0.066556
 **** Fit      -0.067880
 **** Fit      -0.070236
 **** Fit      -0.073015
 **** Fit      -0.076252
 **** Fit      -0.079917
 **** Fit      -0.081767
 **** Fit      -0.077731
 **** Fit      -0.073793
 **** Fit      -0.070251
 **** Fit      -0.067373
 **** Fit      -0.065398
 **** Fit      -0.064511
 **** Fit      -0.064761
 **** Fit      -0.065983
 **** Fit      -0.068653
 **** Fit      -0.071056
 **** Fit      -0.073652
 **** Fit      -0.076624
 **** Fit      -0.080094
 **** Fit      -0.082711
 **** Fit      -0.078394
 **** Fit      -0.074219
 **** Fit      -0.070437
 **** Fit      -0.067254
 **** Fit      -0.064886
 **** Fit      -0.063560
 **** Fit      -0.063444
 **** Fit      -0.064496
 **** Fit      -0.066383
 **** Fit      -0.078087
 **** Fit      -0.084051
 **** Fit      -0.079475
 **** Fit      -0.075082
 **** Fit      -0.071061
 **** Fit      -0.067558
 **** Fit      -0.064755
 **** Fit      -0.062914
 **** Fit      -0.062343
 **** Fit      -0.084220
 **** Fit      -0.079158
 **** Fit      -0.074408
 **** Fit      -0.070069
 **** Fit      -0.066253
 **** Fit      -0.078859
 **** Fit      -0.073751
 **** Fit      -0.068967
 **** Fit      -0.074425
 **** Fit      -0.095657
 **** Fit      -0.092346
 **** Fit      -0.096267
 **** Fit      -0.100208
 **** Fit      -0.100262
 **** Fit      -0.095903
 **** Fit      -0.092022
 **** Fit      -0.090028
 **** Fit      -0.093528
 **** Fit      -0.097784
 **** Fit      -0.102054
 **** Fit      -0.105774
 **** Fit      -0.107721
 **** Fit      -0.106535
 **** Fit      -0.102360
 **** Fit      -0.096978
 **** Fit      -0.092252
 **** Fit      -0.089236
 **** Fit      -0.088423
 **** Fit      -0.104299
 **** Fit      -0.108417
 **** Fit      -0.112477
 **** Fit      -0.115679
 **** Fit      -0.116791
 **** Fit      -0.114978
 **** Fit      -0.110550
 **** Fit      -0.104739
 **** Fit      -0.098865
 **** Fit      -0.093794
 **** Fit      -0.089899
 **** Fit      -0.087267
 **** Fit      -0.085969
 **** Fit      -0.117110
 **** Fit      -0.122106
 **** Fit      -0.126470
 **** Fit      -0.128807
 **** Fit      -0.127985
 **** Fit      -0.123926
 **** Fit      -0.117634
 **** Fit      -0.110503
 **** Fit      -0.103654
 **** Fit      -0.097720
 **** Fit      -0.092919
 **** Fit      -0.089224
 **** Fit      -0.086501
 **** Fit      -0.084641
 **** Fit      -0.129820
 **** Fit      -0.130267
 **** Fit      -0.121211
 **** Fit      -0.112574
 **** Fit      -0.105044
 **** Fit      -0.098844
 **** Fit      -0.093925
 **** Fit      -0.090104
 **** Fit      -0.087142
 **** Fit      -0.124254
 **** Fit      -0.114722
 **** Fit      -0.106872
 **** Fit      -0.100599
 **** Fit      -0.095683
 **** Fit      -0.091856
 **** Fit      -0.088837
 **** Fit      -0.124137
 **** Fit      -0.114290
 **** Fit      -0.106601
 **** Fit      -0.100682
 **** Fit      -0.096164
 **** Fit      -0.092702
 **** Fit      -0.123308
 **** Fit      -0.113969
 **** Fit      -0.106910
 **** Fit      -0.101617
 **** Fit      -0.097676
 **** Fit      -0.125980
 **** Fit      -0.116583
 **** Fit      -0.109675
 **** Fit      -0.124863
 **** Fit      -0.133724
 **** Fit      -0.109468
 **** Fit      -0.115967
 **** Fit      -0.124807
 **** Fit      -0.101293
 **** Fit      -0.106537
 **** Fit      -0.113430
 **** Fit      -0.122571
 **** Fit      -0.091499
 **** Fit      -0.095318
 **** Fit      -0.100013
 **** Fit      -0.105990
 **** Fit      -0.113709
 **** Fit      -0.123708
 **** Fit      -0.086954
 **** Fit      -0.090450
 **** Fit      -0.094615
 **** Fit      -0.099760
 **** Fit      -0.106226
 **** Fit      -0.114362
 **** Fit      -0.124479
 **** Fit      -0.084854
 **** Fit      -0.088207
 **** Fit      -0.092344
 **** Fit      -0.097505
 **** Fit      -0.103955
 **** Fit      -0.111909
 **** Fit      -0.121394
 **** Fit      -0.082354
 **** Fit      -0.084162
 **** Fit      -0.087053
 **** Fit      -0.090957
 **** Fit      -0.095969
 **** Fit      -0.102211
 **** Fit      -0.109668
 **** Fit      -0.117971
 **** Fit      -0.126150
 **** Fit      -0.129215
 **** Fit      -0.122688
 **** Fit      -0.116143
 **** Fit      -0.085671
 **** Fit      -0.084431
 **** Fit      -0.085152
 **** Fit      -0.087559
 **** Fit      -0.091419
 **** Fit      -0.096635
 **** Fit      -0.103028
 **** Fit      -0.110027
 **** Fit      -0.116404
 **** Fit      -0.120447
 **** Fit      -0.120871
 **** Fit      -0.117856
 **** Fit      -0.112863
 **** Fit      -0.107410
 **** Fit      -0.102254
 **** Fit      -0.088249
 **** Fit      -0.087533
 **** Fit      -0.089531
 **** Fit      -0.093874
 **** Fit      -0.099847
 **** Fit      -0.105991
 **** Fit      -0.109946
 **** Fit      -0.109881
 **** Fit      -0.106297
 **** Fit      -0.101194
 **** Fit      -0.096006
 **** Fit      -0.091407
 **** Fit      -0.091621
 **** Fit      -0.092380
 **** Fit      -0.097534
 **** Fit      -0.102055
 **** Fit      -0.100727
 **** Fit      -0.095579
 **** Fit      -0.096103
 **** Fit      -0.074819
 **** Fit      -0.065681
 **** Fit      -0.072089
 **** Fit      -0.078034
 **** Fit      -0.058604
 **** Fit      -0.065257
 **** Fit      -0.071365
 **** Fit      -0.077228
 **** Fit      -0.083071
 **** Fit      -0.053815
 **** Fit      -0.059839
 **** Fit      -0.065736
 **** Fit      -0.071424
 **** Fit      -0.076993
 **** Fit      -0.082466
 **** Fit      -0.074518
 **** Fit      -0.070376
 **** Fit      -0.055214
 **** Fit      -0.051035
 **** Fit      -0.049007
 **** Fit      -0.050038
 **** Fit      -0.053635
 **** Fit      -0.058601
 **** Fit      -0.064037
 **** Fit      -0.069549
 **** Fit      -0.075015
 **** Fit      -0.080335
 **** Fit      -0.073996
 **** Fit      -0.069563
 **** Fit      -0.065000
 **** Fit      -0.060152
 **** Fit      -0.057205
 **** Fit      -0.054329
 **** Fit      -0.053543
 **** Fit      -0.055214
 **** Fit      -0.058800
 **** Fit      -0.063448
 **** Fit      -0.068542
 **** Fit      -0.073739
 **** Fit      -0.078793
 **** Fit      -0.079271
 **** Fit      -0.074603
 **** Fit      -0.070064
 **** Fit      -0.065601
 **** Fit      -0.061217
 **** Fit      -0.059871
 **** Fit      -0.057910
 **** Fit      -0.058189
 **** Fit      -0.060706
 **** Fit      -0.064772
 **** Fit      -0.069603
 **** Fit      -0.074609
 **** Fit      -0.079332
 **** Fit      -0.083408
 **** Fit      -0.081230
 **** Fit      -0.076754
 **** Fit      -0.072109
 **** Fit      -0.067569
 **** Fit      -0.063348
 **** Fit      -0.063006
 **** Fit      -0.061871
 **** Fit      -0.063663
 **** Fit      -0.067717
 **** Fit      -0.072701
 **** Fit      -0.077358
 **** Fit      -0.080603
 **** Fit      -0.081474
 **** Fit      -0.079620
 **** Fit      -0.075749
 **** Fit      -0.071020
 **** Fit      -0.066445
 **** Fit      -0.066591
 **** Fit      -0.066968
 **** Fit      -0.071393
 **** Fit      -0.075326
 **** Fit      -0.074862
 **** Fit      -0.070548
 **** Fit      -0.070675
 -----------------------------------------------------------------
 Leave Link  602 at Thu Sep 24 19:04:28 2015, MaxMem=    6291456 cpu:      15.1

 Test job not archived.
 1\1\GINC-COMPUTE-2-11\FOpt\RHF\6-31G(d)\C25H22Cl1N2O3(1-)\SHUNZHOU\24-
 Sep-2015\0\\#HF/6-31G* SCF=tight Test Pop=MK iop(6/33=2) iop(6/42=6) o
 pt\\remark line goes here\\-1,1\C,15.0012144786,6.1093815847,9.9355177
 59\C,13.9755865301,5.2036328355,9.2598063953\C,14.6313236905,4.2158928
 802,8.2747929668\C,13.8683623892,2.8856713987,8.2044376416\N,14.412642
 2561,2.0697641048,7.1468078395\C,13.7299573326,1.0329036237,6.52433478
 01\C,14.413177637,0.2506914971,5.5873042898\C,13.7769563845,-0.7584027
 654,4.8973937784\C,12.4335203923,-1.0051184217,5.1225112692\Cl,11.6186
 015593,-2.2728093394,4.2360154662\C,11.743041586,-0.2547228249,6.04921
 1311\C,12.3844635288,0.7532114466,6.7516341764\C,13.9229207006,2.29835
 47455,9.6067362824\C,14.3765822479,1.0298208776,9.9177465479\C,14.5126
 154493,0.6049071318,11.2419781084\C,14.1959707015,1.5129235999,12.2483
 72644\C,13.7551769062,2.7912948984,11.9504396248\C,13.5916241601,3.180
 0985329,10.6332579543\N,13.1588419262,4.4811406055,10.2523603204\C,12.
 0082023037,5.0781599212,10.6781613636\C,11.0332974257,4.2765177064,11.
 5185080989\O,11.7464187262,6.2163613301,10.3824493131\C,15.0098801359,
 -0.7593340939,11.5680836926\C,14.4327658809,-1.5053502654,12.593917080
 2\C,14.9091483651,-2.7669121516,12.9069318696\C,15.9759252518,-3.32418
 93098,12.2130579023\C,16.5492181153,-2.5814548849,11.1885899437\C,16.0
 757553564,-1.3208661175,10.8677421677\C,16.5146493084,-4.7311141173,12
 .5748072292\O,17.4654466254,-5.1107797774,11.8921460183\O,15.924388205
 1,-5.2875440979,13.5000221825\H,14.502399485,6.8492424534,10.549143206
 2\H,15.6722795303,5.528997017,10.5614417506\H,15.5985805016,6.62885599
 8,9.1907267253\H,13.2816145623,5.8211871211,8.711674881\H,15.653876417
 3,4.0045909083,8.5776264678\H,14.6743097878,4.6697412268,7.2906619496\
 H,12.8409374356,3.114224042,7.9450576709\H,15.3981593948,1.9314882061,
 7.2022251216\H,15.4540482155,0.4450108034,5.3958755916\H,14.3211572585
 ,-1.3488334035,4.1845013321\H,10.7057868345,-0.4573806368,6.239320071\
 H,11.8268107741,1.2991252264,7.4869435515\H,14.6147547372,0.3430681998
 ,9.1281017382\H,14.3325970231,1.2296911316,13.2755368182\H,13.55901226
 31,3.4888391377,12.7444042817\H,10.0569439616,4.715683324,11.369357425
 \H,11.0136207786,3.2261316314,11.2650623281\H,11.2840995777,4.36463849
 69,12.5695117029\H,13.5915668431,-1.1044569666,13.1346356368\H,14.4634
 661733,-3.3484062711,13.6912759937\H,17.377392041,-3.0134537482,10.659
 9602033\H,16.5559108473,-0.7561144513,10.0858795354\\Version=AM64L-G03
 RevD.02\State=1-A\HF=-1752.5647749\RMSD=6.916e-09\RMSF=5.549e-06\Therm
 al=0.\Dipole=-3.1797119,8.9635254,-4.5720077\PG=C01 [X(C25H22Cl1N2O3)]
 \\@


 MATERIAL COPIED FROM ONE SCHOLARLY BOOK WITHOUT CREDIT COMPRISES PLAGIARISM.
 MATERIAL COPIED FROM TWO SCHOLARLY BOOKS COMPRISES AN ESSAY.
 MATERIAL COPIED FROM THREE SCHOLARLY BOOKS COMPRISES A DISSERTATION.
 MATERIAL COPIED FROM FOUR SCHOLARLY BOOKS COMPRISES A FIFTH SCHOLARLY BOOK.

                               -- C&EN, 25 FEB 1980
 Job cpu time:  0 days  8 hours 35 minutes 52.1 seconds.
 File lengths (MBytes):  RWF=    174 Int=      0 D2E=      0 Chk=     24 Scr=      1
 Normal termination of Gaussian 03 at Thu Sep 24 19:04:28 2015.
