 Entering Gaussian System, Link 0=/share/apps/g03/g03
 Initial command:
 /share/apps//g03/l1.exe /state/partition1/mmpbsa.1/Gau-21537.inp -scrdir=/state/partition1/mmpbsa.1/
 Entering Link 1 = /share/apps//g03/l1.exe PID=     21571.
  
 Copyright (c) 1988,1990,1992,1993,1995,1998,2003,2004, Gaussian, Inc.
                  All Rights Reserved.
  
 This is the Gaussian(R) 03 program.  It is based on the
 the Gaussian(R) 98 system (copyright 1998, Gaussian, Inc.),
 the Gaussian(R) 94 system (copyright 1995, Gaussian, Inc.),
 the Gaussian 92(TM) system (copyright 1992, Gaussian, Inc.),
 the Gaussian 90(TM) system (copyright 1990, Gaussian, Inc.),
 the Gaussian 88(TM) system (copyright 1988, Gaussian, Inc.),
 the Gaussian 86(TM) system (copyright 1986, Carnegie Mellon
 University), and the Gaussian 82(TM) system (copyright 1983,
 Carnegie Mellon University). Gaussian is a federally registered
 trademark of Gaussian, Inc.
  
 This software contains proprietary and confidential information,
 including trade secrets, belonging to Gaussian, Inc.
  
 This software is provided under written license and may be
 used, copied, transmitted, or stored only in accord with that
 written license.
  
 The following legend is applicable only to US Government
 contracts under FAR:
  
                    RESTRICTED RIGHTS LEGEND
  
 Use, reproduction and disclosure by the US Government is
 subject to restrictions as set forth in subparagraphs (a)
 and (c) of the Commercial Computer Software - Restricted
 Rights clause in FAR 52.227-19.
  
 Gaussian, Inc.
 340 Quinnipiac St., Bldg. 40, Wallingford CT 06492
  
  
 ---------------------------------------------------------------
 Warning -- This program may not be used in any manner that
 competes with the business of Gaussian, Inc. or will provide
 assistance to any competitor of Gaussian, Inc.  The licensee
 of this program is prohibited from giving any competitor of
 Gaussian, Inc. access to this program.  By using this program,
 the user acknowledges that Gaussian, Inc. is engaged in the
 business of creating and licensing software in the field of
 computational chemistry and represents and warrants to the
 licensee that it is not a competitor of Gaussian, Inc. and that
 it will not use this program in any manner prohibited above.
 ---------------------------------------------------------------
  

 Cite this work as:
 Gaussian 03, Revision D.02,
 M. J. Frisch, G. W. Trucks, H. B. Schlegel, G. E. Scuseria, 
 M. A. Robb, J. R. Cheeseman, J. A. Montgomery, Jr., T. Vreven, 
 K. N. Kudin, J. C. Burant, J. M. Millam, S. S. Iyengar, J. Tomasi, 
 V. Barone, B. Mennucci, M. Cossi, G. Scalmani, N. Rega, 
 G. A. Petersson, H. Nakatsuji, M. Hada, M. Ehara, K. Toyota, 
 R. Fukuda, J. Hasegawa, M. Ishida, T. Nakajima, Y. Honda, O. Kitao, 
 H. Nakai, M. Klene, X. Li, J. E. Knox, H. P. Hratchian, J. B. Cross, 
 V. Bakken, C. Adamo, J. Jaramillo, R. Gomperts, R. E. Stratmann, 
 O. Yazyev, A. J. Austin, R. Cammi, C. Pomelli, J. W. Ochterski, 
 P. Y. Ayala, K. Morokuma, G. A. Voth, P. Salvador, J. J. Dannenberg, 
 V. G. Zakrzewski, S. Dapprich, A. D. Daniels, M. C. Strain, 
 O. Farkas, D. K. Malick, A. D. Rabuck, K. Raghavachari, 
 J. B. Foresman, J. V. Ortiz, Q. Cui, A. G. Baboul, S. Clifford, 
 J. Cioslowski, B. B. Stefanov, G. Liu, A. Liashenko, P. Piskorz, 
 I. Komaromi, R. L. Martin, D. J. Fox, T. Keith, M. A. Al-Laham, 
 C. Y. Peng, A. Nanayakkara, M. Challacombe, P. M. W. Gill, 
 B. Johnson, W. Chen, M. W. Wong, C. Gonzalez, and J. A. Pople, 
 Gaussian, Inc., Wallingford CT, 2004.
 
 ******************************************
 Gaussian 03:  AM64L-G03RevD.02  1-Mar-2006
                 8-Jun-2016 
 ******************************************
 %chk=molecule
 ------------------------------------------------------------
 #HF/6-31G* SCF=tight Test Pop=MK iop(6/33=2) iop(6/42=6) opt
 ------------------------------------------------------------
 1/18=20,38=1/1,3;
 2/9=110,17=6,18=5,40=1/2;
 3/5=1,6=6,7=1,11=9,16=1,25=1,30=1/1,2,3;
 4//1;
 5/5=2,32=2,38=5/2;
 6/7=2,8=2,9=2,10=2,15=8,20=1,28=1,33=2,42=6/1,2;
 7//1,2,3,16;
 1/18=20/3(3);
 2/9=110/2;
 6/7=2,8=2,9=2,10=2,15=8,19=2,20=1,28=1,33=2,42=6/1,2;
 99//99;
 2/9=110/2;
 3/5=1,6=6,7=1,11=9,16=1,25=1,30=1/1,2,3;
 4/5=5,16=3/1;
 5/5=2,32=2,38=5/2;
 7//1,2,3,16;
 1/18=20/3(-5);
 2/9=110/2;
 6/7=2,8=2,9=2,10=2,15=8,19=2,20=1,28=1,33=2,42=6/1,2;
 99/9=1/99;
 ---------------------
 remark line goes here
 ---------------------
 Symbolic Z-matrix:
 Charge =  0 Multiplicity = 1
 O                    -2.965     7.615    -8.574 
 C                    -1.846     8.2      -8.635 
 N                    -1.658     9.37     -9.444 
 C                    -0.368     9.808    -9.815 
 C                    -0.175     10.616   -10.955 
 C                     1.079     11.021   -11.33 
 C                     2.183     10.651   -10.585 
 Br                    3.94      11.298   -11.077 
 C                     2.002     9.902    -9.419 
 C                     0.733     9.433    -9.045 
 C                     0.492     8.666    -7.859 
 N                    -0.761     7.792    -7.931 
 C                    -0.844     6.686    -6.967 
 H                     0.007     6.005    -7.116 
 H                    -0.816     7.089    -5.943 
 H                    -1.784     6.137    -7.119 
 H                     0.381     9.362    -7.013 
 H                     1.36      8.014    -7.685 
 H                     2.857     9.68     -8.791 
 H                     1.206     11.634   -12.216 
 H                    -1.033     10.921   -11.543 
 H                    -2.458     9.885    -9.752 
 

 GradGradGradGradGradGradGradGradGradGradGradGradGradGradGradGradGradGrad
 Berny optimization.
 Initialization pass.
                           ----------------------------
                           !    Initial Parameters    !
                           ! (Angstroms and Degrees)  !
 --------------------------                            --------------------------
 ! Name  Definition              Value          Derivative Info.                !
 --------------------------------------------------------------------------------
 ! R1    R(1,2)                  1.2642         estimate D2E/DX2                !
 ! R2    R(2,3)                  1.4348         estimate D2E/DX2                !
 ! R3    R(2,12)                 1.3562         estimate D2E/DX2                !
 ! R4    R(3,4)                  1.4119         estimate D2E/DX2                !
 ! R5    R(3,22)                 1.0            estimate D2E/DX2                !
 ! R6    R(4,5)                  1.4106         estimate D2E/DX2                !
 ! R7    R(4,10)                 1.3949         estimate D2E/DX2                !
 ! R8    R(5,6)                  1.3701         estimate D2E/DX2                !
 ! R9    R(5,21)                 1.0839         estimate D2E/DX2                !
 ! R10   R(6,7)                  1.3823         estimate D2E/DX2                !
 ! R11   R(6,20)                 1.0848         estimate D2E/DX2                !
 ! R12   R(7,8)                  1.9359         estimate D2E/DX2                !
 ! R13   R(7,9)                  1.3976         estimate D2E/DX2                !
 ! R14   R(9,10)                 1.4036         estimate D2E/DX2                !
 ! R15   R(9,19)                 1.0838         estimate D2E/DX2                !
 ! R16   R(10,11)                1.4328         estimate D2E/DX2                !
 ! R17   R(11,12)                1.5294         estimate D2E/DX2                !
 ! R18   R(11,17)                1.1011         estimate D2E/DX2                !
 ! R19   R(11,18)                1.0995         estimate D2E/DX2                !
 ! R20   R(12,13)                1.4695         estimate D2E/DX2                !
 ! R21   R(13,14)                1.1001         estimate D2E/DX2                !
 ! R22   R(13,15)                1.1008         estimate D2E/DX2                !
 ! R23   R(13,16)                1.0991         estimate D2E/DX2                !
 ! A1    A(1,2,3)              121.368          estimate D2E/DX2                !
 ! A2    A(1,2,12)             122.9492         estimate D2E/DX2                !
 ! A3    A(3,2,12)             115.6689         estimate D2E/DX2                !
 ! A4    A(2,3,4)              121.387          estimate D2E/DX2                !
 ! A5    A(2,3,22)             119.2594         estimate D2E/DX2                !
 ! A6    A(4,3,22)             119.3536         estimate D2E/DX2                !
 ! A7    A(3,4,5)              121.0013         estimate D2E/DX2                !
 ! A8    A(3,4,10)             119.5179         estimate D2E/DX2                !
 ! A9    A(5,4,10)             119.4805         estimate D2E/DX2                !
 ! A10   A(4,5,6)              121.0481         estimate D2E/DX2                !
 ! A11   A(4,5,21)             119.4251         estimate D2E/DX2                !
 ! A12   A(6,5,21)             119.5268         estimate D2E/DX2                !
 ! A13   A(5,6,7)              120.2887         estimate D2E/DX2                !
 ! A14   A(5,6,20)             119.8488         estimate D2E/DX2                !
 ! A15   A(7,6,20)             119.8625         estimate D2E/DX2                !
 ! A16   A(6,7,8)              119.8963         estimate D2E/DX2                !
 ! A17   A(6,7,9)              119.3181         estimate D2E/DX2                !
 ! A18   A(8,7,9)              120.5756         estimate D2E/DX2                !
 ! A19   A(7,9,10)             121.228          estimate D2E/DX2                !
 ! A20   A(7,9,19)             119.407          estimate D2E/DX2                !
 ! A21   A(10,9,19)            119.365          estimate D2E/DX2                !
 ! A22   A(4,10,9)             118.4692         estimate D2E/DX2                !
 ! A23   A(4,10,11)            117.9093         estimate D2E/DX2                !
 ! A24   A(9,10,11)            123.4687         estimate D2E/DX2                !
 ! A25   A(10,11,12)           113.8751         estimate D2E/DX2                !
 ! A26   A(10,11,17)           108.3341         estimate D2E/DX2                !
 ! A27   A(10,11,18)           108.4004         estimate D2E/DX2                !
 ! A28   A(12,11,17)           108.3486         estimate D2E/DX2                !
 ! A29   A(12,11,18)           108.3827         estimate D2E/DX2                !
 ! A30   A(17,11,18)           109.4408         estimate D2E/DX2                !
 ! A31   A(2,12,11)            120.5279         estimate D2E/DX2                !
 ! A32   A(2,12,13)            121.4507         estimate D2E/DX2                !
 ! A33   A(11,12,13)           116.4552         estimate D2E/DX2                !
 ! A34   A(12,13,14)           109.4737         estimate D2E/DX2                !
 ! A35   A(12,13,15)           109.4669         estimate D2E/DX2                !
 ! A36   A(12,13,16)           109.4822         estimate D2E/DX2                !
 ! A37   A(14,13,15)           109.4479         estimate D2E/DX2                !
 ! A38   A(14,13,16)           109.4902         estimate D2E/DX2                !
 ! A39   A(15,13,16)           109.4664         estimate D2E/DX2                !
 ! D1    D(1,2,3,4)           -162.1605         estimate D2E/DX2                !
 ! D2    D(1,2,3,22)            17.7732         estimate D2E/DX2                !
 ! D3    D(12,2,3,4)            19.1575         estimate D2E/DX2                !
 ! D4    D(12,2,3,22)         -160.9088         estimate D2E/DX2                !
 ! D5    D(1,2,12,11)         -169.6634         estimate D2E/DX2                !
 ! D6    D(1,2,12,13)           -4.4401         estimate D2E/DX2                !
 ! D7    D(3,2,12,11)            8.9955         estimate D2E/DX2                !
 ! D8    D(3,2,12,13)          174.2188         estimate D2E/DX2                !
 ! D9    D(2,3,4,5)            156.7786         estimate D2E/DX2                !
 ! D10   D(2,3,4,10)           -23.0324         estimate D2E/DX2                !
 ! D11   D(22,3,4,5)           -23.155          estimate D2E/DX2                !
 ! D12   D(22,3,4,10)          157.034          estimate D2E/DX2                !
 ! D13   D(3,4,5,6)           -178.7757         estimate D2E/DX2                !
 ! D14   D(3,4,5,21)             1.2348         estimate D2E/DX2                !
 ! D15   D(10,4,5,6)             1.0353         estimate D2E/DX2                !
 ! D16   D(10,4,5,21)         -178.9542         estimate D2E/DX2                !
 ! D17   D(3,4,10,9)          -178.7884         estimate D2E/DX2                !
 ! D18   D(3,4,10,11)           -3.1238         estimate D2E/DX2                !
 ! D19   D(5,4,10,9)             1.3977         estimate D2E/DX2                !
 ! D20   D(5,4,10,11)          177.0623         estimate D2E/DX2                !
 ! D21   D(4,5,6,7)             -0.5584         estimate D2E/DX2                !
 ! D22   D(4,5,6,20)           179.3869         estimate D2E/DX2                !
 ! D23   D(21,5,6,7)           179.4311         estimate D2E/DX2                !
 ! D24   D(21,5,6,20)           -0.6236         estimate D2E/DX2                !
 ! D25   D(5,6,7,8)           -177.1243         estimate D2E/DX2                !
 ! D26   D(5,6,7,9)             -2.3587         estimate D2E/DX2                !
 ! D27   D(20,6,7,8)             2.9304         estimate D2E/DX2                !
 ! D28   D(20,6,7,9)           177.6959         estimate D2E/DX2                !
 ! D29   D(6,7,9,10)             4.881          estimate D2E/DX2                !
 ! D30   D(6,7,9,19)          -175.0436         estimate D2E/DX2                !
 ! D31   D(8,7,9,10)           179.6101         estimate D2E/DX2                !
 ! D32   D(8,7,9,19)            -0.3145         estimate D2E/DX2                !
 ! D33   D(7,9,10,4)            -4.3675         estimate D2E/DX2                !
 ! D34   D(7,9,10,11)         -179.7742         estimate D2E/DX2                !
 ! D35   D(19,9,10,4)          175.5571         estimate D2E/DX2                !
 ! D36   D(19,9,10,11)           0.1504         estimate D2E/DX2                !
 ! D37   D(4,10,11,12)          28.7489         estimate D2E/DX2                !
 ! D38   D(4,10,11,17)         -91.871          estimate D2E/DX2                !
 ! D39   D(4,10,11,18)         149.4592         estimate D2E/DX2                !
 ! D40   D(9,10,11,12)        -155.8204         estimate D2E/DX2                !
 ! D41   D(9,10,11,17)          83.5598         estimate D2E/DX2                !
 ! D42   D(9,10,11,18)         -35.11           estimate D2E/DX2                !
 ! D43   D(10,11,12,2)         -32.8465         estimate D2E/DX2                !
 ! D44   D(10,11,12,13)        161.2191         estimate D2E/DX2                !
 ! D45   D(17,11,12,2)          87.7652         estimate D2E/DX2                !
 ! D46   D(17,11,12,13)        -78.1692         estimate D2E/DX2                !
 ! D47   D(18,11,12,2)        -153.5668         estimate D2E/DX2                !
 ! D48   D(18,11,12,13)         40.4988         estimate D2E/DX2                !
 ! D49   D(2,12,13,14)         134.2145         estimate D2E/DX2                !
 ! D50   D(2,12,13,15)        -105.8151         estimate D2E/DX2                !
 ! D51   D(2,12,13,16)          14.183          estimate D2E/DX2                !
 ! D52   D(11,12,13,14)        -59.9906         estimate D2E/DX2                !
 ! D53   D(11,12,13,15)         59.9797         estimate D2E/DX2                !
 ! D54   D(11,12,13,16)        179.9778         estimate D2E/DX2                !
 --------------------------------------------------------------------------------
 Trust Radius=3.00D-01 FncErr=1.00D-07 GrdErr=1.00D-07
 Number of steps in this run= 126 maximum allowed number of steps= 132.
 GradGradGradGradGradGradGradGradGradGradGradGradGradGradGradGradGradGrad

                          Input orientation:                          
 ---------------------------------------------------------------------
 Center     Atomic     Atomic              Coordinates (Angstroms)
 Number     Number      Type              X           Y           Z
 ---------------------------------------------------------------------
    1          8             0       -2.965000    7.615000   -8.574000
    2          6             0       -1.846000    8.200000   -8.635000
    3          7             0       -1.658000    9.370000   -9.444000
    4          6             0       -0.368000    9.808000   -9.815000
    5          6             0       -0.175000   10.616000  -10.955000
    6          6             0        1.079000   11.021000  -11.330000
    7          6             0        2.183000   10.651000  -10.585000
    8         35             0        3.940000   11.298000  -11.077000
    9          6             0        2.002000    9.902000   -9.419000
   10          6             0        0.733000    9.433000   -9.045000
   11          6             0        0.492000    8.666000   -7.859000
   12          7             0       -0.761000    7.792000   -7.931000
   13          6             0       -0.844000    6.686000   -6.967000
   14          1             0        0.007000    6.005000   -7.116000
   15          1             0       -0.816000    7.089000   -5.943000
   16          1             0       -1.784000    6.137000   -7.119000
   17          1             0        0.381000    9.362000   -7.013000
   18          1             0        1.360000    8.014000   -7.685000
   19          1             0        2.857000    9.680000   -8.791000
   20          1             0        1.206000   11.634000  -12.216000
   21          1             0       -1.033000   10.921000  -11.543000
   22          1             0       -2.458000    9.885000   -9.752000
 ---------------------------------------------------------------------
                    Distance matrix (angstroms):
                    1          2          3          4          5
     1  O    0.000000
     2  C    1.264163   0.000000
     3  N    2.354819   1.434826   0.000000
     4  C    3.618527   2.482448   1.411944   0.000000
     5  C    4.739120   3.743220   2.456609   1.410572   0.000000
     6  C    5.962408   4.876135   3.711329   2.420827   1.370097
     7  C    6.305816   5.103209   4.206676   2.794843   2.387109
     8  Br   8.216357   7.002768   6.141781   4.729863   4.172917
     9  C    5.533126   4.280019   3.698547   2.404694   2.758337
    10  C    4.147550   2.887842   2.424882   1.394893   2.423232
    11  C    3.683297   2.507105   2.762307   2.422746   3.719221
    12  N    2.302693   1.356210   2.363020   2.787142   4.178869
    13  C    2.818533   2.465446   3.741922   4.252595   5.638848
    14  H    3.681120   3.249461   4.417582   4.678465   6.002697
    15  H    3.437592   3.089027   4.262502   4.752478   6.162041
    16  H    2.386686   2.560873   3.984193   4.769666   6.112710
    17  H    4.084660   2.990093   3.172908   2.934471   4.173849
    18  H    4.433413   3.348960   3.747151   3.277395   4.451913
    19  H    6.181181   4.932844   4.572498   3.386087   3.840835
    20  H    6.842059   5.825000   4.583904   3.402433   2.129227
    21  H    4.845330   4.064637   2.683659   2.160319   1.083943
    22  H    2.607227   2.112216   1.000044   2.092367   2.682100
                    6          7          8          9         10
     6  C    0.000000
     7  C    1.382296   0.000000
     8  Br   2.885491   1.935903   0.000000
     9  C    2.399169   1.397612   2.907512   0.000000
    10  C    2.804048   2.440824   4.229905   1.403637   0.000000
    11  C    4.235379   3.772371   5.401079   2.498279   1.432818
    12  N    5.036392   4.887201   6.654980   3.781589   2.483126
    13  C    6.444061   6.162295   7.813405   4.945167   3.788274
    14  H    6.638316   6.193081   7.692455   4.946761   3.999913
    15  H    6.933355   6.574953   8.166589   5.285515   4.185229
    16  H    7.055689   6.937322   8.664056   5.813693   4.572568
    17  H    4.677176   4.203321   5.738525   2.950945   2.063485
    18  H    4.733607   4.005134   5.380216   2.642624   2.063078
    19  H    3.377290   2.148384   3.002767   1.083833   2.153346
    20  H    1.084847   2.140322   2.980767   3.384767   3.888878
    21  H    2.125068   3.366500   5.008993   3.842000   3.401897
    22  H    4.036205   4.776979   6.684804   4.472447   3.299490
                   11         12         13         14         15
    11  C    0.000000
    12  N    1.529402   0.000000
    13  C    2.549698   1.469497   0.000000
    14  H    2.805030   2.108890   1.100074   0.000000
    15  H    2.805147   2.109355   1.100804   1.796751   0.000000
    16  H    3.481898   2.108293   1.099138   1.795860   1.796192
    17  H    1.101114   2.147507   2.943419   3.379339   2.782847
    18  H    1.099456   2.146728   2.671465   2.488062   2.936863
    19  H    2.736795   4.170620   5.097883   4.943051   5.321214
    20  H    5.319988   6.082046   7.499147   7.689814   8.006000
    21  H    4.580667   4.786561   6.237846   6.696789   6.789058
    22  H    3.711052   3.252153   4.538152   5.298974   5.002226
                   16         17         18         19         20
    16  H    0.000000
    17  H    3.885754   0.000000
    18  H    3.705161   1.796421   0.000000
    19  H    6.073493   3.064798   2.497959   0.000000
    20  H    8.070720   5.737057   5.801558   4.274873   0.000000
    21  H    6.559149   4.995075   5.390850   4.923991   2.444262
    22  H    4.629737   3.979393   4.727606   5.405069   4.749231
                   21         22
    21  H    0.000000
    22  H    2.512290   0.000000
 Stoichiometry    C9H9BrN2O
 Framework group  C1[X(C9H9BrN2O)]
 Deg. of freedom    60
 Full point group                 C1
 Largest Abelian subgroup         C1      NOp   1
 Largest concise Abelian subgroup C1      NOp   1
                         Standard orientation:                         
 ---------------------------------------------------------------------
 Center     Atomic     Atomic              Coordinates (Angstroms)
 Number     Number      Type              X           Y           Z
 ---------------------------------------------------------------------
    1          8             0       -4.483946    0.950487   -0.334903
    2          6             0       -3.324719    0.513878   -0.082565
    3          7             0       -2.248784    1.401902    0.252847
    4          6             0       -0.901299    0.987973    0.172027
    5          6             0        0.139630    1.927835    0.020904
    6          6             0        1.445285    1.525682   -0.082557
    7          6             0        1.767436    0.182532   -0.028642
    8         35             0        3.622269   -0.368178   -0.092154
    9          6             0        0.753872   -0.756406    0.182073
   10          6             0       -0.594678   -0.371169    0.238674
   11          6             0       -1.670909   -1.291580    0.456703
   12          7             0       -3.018202   -0.807239   -0.081150
   13          6             0       -4.050055   -1.833957   -0.282523
   14          1             0       -3.688393   -2.580639   -1.004900
   15          1             0       -4.268350   -2.327785    0.676774
   16          1             0       -4.965121   -1.363230   -0.668754
   17          1             0       -1.770014   -1.458123    1.540628
   18          1             0       -1.421137   -2.241104   -0.038091
   19          1             0        1.013718   -1.801387    0.305318
   20          1             0        2.229526    2.264647   -0.208224
   21          1             0       -0.098115    2.984819   -0.013654
   22          1             0       -2.458428    2.333774    0.549079
 ---------------------------------------------------------------------
 Rotational constants (GHZ):      1.8377337      0.2428495      0.2169481
 Standard basis: 6-31G(d) (6D, 7F)
 There are   228 symmetry adapted basis functions of A   symmetry.
 Integral buffers will be    131072 words long.
 Raffenetti 1 integral format.
 Two-electron integral symmetry is turned on.
   228 basis functions,   455 primitive gaussians,   228 cartesian basis functions
    60 alpha electrons       60 beta electrons
       nuclear repulsion energy      1016.9337122230 Hartrees.
 NAtoms=   22 NActive=   22 NUniq=   22 SFac= 7.50D-01 NAtFMM=   80 NAOKFM=F Big=F
 One-electron integrals computed using PRISM.
 NBasis=   228 RedAO= T  NBF=   228
 NBsUse=   228 1.00D-06 NBFU=   228
 Harris functional with IExCor=  205 diagonalized for initial guess.
 ExpMin= 1.43D-01 ExpMax= 5.74D+05 ExpMxC= 5.74D+03 IAcc=2 IRadAn=         4 AccDes= 0.00D+00
 HarFok:  IExCor= 205 AccDes= 0.00D+00 IRadAn=         4 IDoV=1
 ScaDFX=  1.000000  1.000000  1.000000  1.000000
 Initial guess orbital symmetries:
       Occupied  (A) (A) (A) (A) (A) (A) (A) (A) (A) (A) (A) (A)
                 (A) (A) (A) (A) (A) (A) (A) (A) (A) (A) (A) (A)
                 (A) (A) (A) (A) (A) (A) (A) (A) (A) (A) (A) (A)
                 (A) (A) (A) (A) (A) (A) (A) (A) (A) (A) (A) (A)
                 (A) (A) (A) (A) (A) (A) (A) (A) (A) (A) (A) (A)
       Virtual   (A) (A) (A) (A) (A) (A) (A) (A) (A) (A) (A) (A)
                 (A) (A) (A) (A) (A) (A) (A) (A) (A) (A) (A) (A)
                 (A) (A) (A) (A) (A) (A) (A) (A) (A) (A) (A) (A)
                 (A) (A) (A) (A) (A) (A) (A) (A) (A) (A) (A) (A)
                 (A) (A) (A) (A) (A) (A) (A) (A) (A) (A) (A) (A)
                 (A) (A) (A) (A) (A) (A) (A) (A) (A) (A) (A) (A)
                 (A) (A) (A) (A) (A) (A) (A) (A) (A) (A) (A) (A)
                 (A) (A) (A) (A) (A) (A) (A) (A) (A) (A) (A) (A)
                 (A) (A) (A) (A) (A) (A) (A) (A) (A) (A) (A) (A)
                 (A) (A) (A) (A) (A) (A) (A) (A) (A) (A) (A) (A)
                 (A) (A) (A) (A) (A) (A) (A) (A) (A) (A) (A) (A)
                 (A) (A) (A) (A) (A) (A) (A) (A) (A) (A) (A) (A)
                 (A) (A) (A) (A) (A) (A) (A) (A) (A) (A) (A) (A)
                 (A) (A) (A) (A) (A) (A) (A) (A) (A) (A) (A) (A)
 The electronic state of the initial guess is 1-A.
 Requested convergence on RMS density matrix=1.00D-08 within 128 cycles.
 Requested convergence on MAX density matrix=1.00D-06.
 Requested convergence on             energy=1.00D-06.
 No special actions if energy rises.
 Integral accuracy reduced to 1.0D-05 until final iterations.
 Initial convergence to 1.0D-05 achieved.  Increase integral accuracy.
 SCF Done:  E(RHF) =  -3099.71363413     A.U. after   16 cycles
             Convg  =    0.9386D-08             -V/T =  2.0042
             S**2   =   0.0000

 **********************************************************************

            Population analysis using the SCF density.

 **********************************************************************

 Orbital symmetries:
 BldTbl:  Degeneracy threshold= 1.00D-02
       Occupied  (A) (A) (A) (A) (A) (A) (A) (A) (A) (A) (A) (A)
                 (A) (A) (A) (A) (A) (A) (A) (A) (A) (A) (A) (A)
                 (A) (A) (A) (A) (A) (A) (A) (A) (A) (A) (A) (A)
                 (A) (A) (A) (A) (A) (A) (A) (A) (A) (A) (A) (A)
                 (A) (A) (A) (A) (A) (A) (A) (A) (A) (A) (A) (A)
       Virtual   (A) (A) (A) (A) (A) (A) (A) (A) (A) (A) (A) (A)
                 (A) (A) (A) (A) (A) (A) (A) (A) (A) (A) (A) (A)
                 (A) (A) (A) (A) (A) (A) (A) (A) (A) (A) (A) (A)
                 (A) (A) (A) (A) (A) (A) (A) (A) (A) (A) (A) (A)
                 (A) (A) (A) (A) (A) (A) (A) (A) (A) (A) (A) (A)
                 (A) (A) (A) (A) (A) (A) (A) (A) (A) (A) (A) (A)
                 (A) (A) (A) (A) (A) (A) (A) (A) (A) (A) (A) (A)
                 (A) (A) (A) (A) (A) (A) (A) (A) (A) (A) (A) (A)
                 (A) (A) (A) (A) (A) (A) (A) (A) (A) (A) (A) (A)
                 (A) (A) (A) (A) (A) (A) (A) (A) (A) (A) (A) (A)
                 (A) (A) (A) (A) (A) (A) (A) (A) (A) (A) (A) (A)
                 (A) (A) (A) (A) (A) (A) (A) (A) (A) (A) (A) (A)
                 (A) (A) (A) (A) (A) (A) (A) (A) (A) (A) (A) (A)
                 (A) (A) (A) (A) (A) (A) (A) (A) (A) (A) (A) (A)
 The electronic state is 1-A.
 Alpha  occ. eigenvalues -- -490.07095 -64.48228 -58.62177 -58.61992 -58.61980
 Alpha  occ. eigenvalues --  -20.51611 -15.60958 -15.60897 -11.39588 -11.30884
 Alpha  occ. eigenvalues --  -11.30690 -11.29774 -11.27169 -11.27108 -11.26329
 Alpha  occ. eigenvalues --  -11.26281 -11.25694  -9.73012  -7.47933  -7.47055
 Alpha  occ. eigenvalues --   -7.47042  -3.21825  -3.21409  -3.21397  -3.20368
 Alpha  occ. eigenvalues --   -3.20367  -1.37072  -1.26744  -1.22623  -1.17466
 Alpha  occ. eigenvalues --   -1.08870  -1.05340  -0.97947  -0.97201  -0.94227
 Alpha  occ. eigenvalues --   -0.85953  -0.83411  -0.75713  -0.74160  -0.71341
 Alpha  occ. eigenvalues --   -0.68135  -0.66262  -0.63950  -0.62711  -0.61630
 Alpha  occ. eigenvalues --   -0.59399  -0.59160  -0.57961  -0.57121  -0.54162
 Alpha  occ. eigenvalues --   -0.53209  -0.51886  -0.50174  -0.46887  -0.42958
 Alpha  occ. eigenvalues --   -0.41789  -0.41345  -0.38431  -0.35689  -0.31150
 Alpha virt. eigenvalues --    0.11211   0.12085   0.15219   0.20850   0.22578
 Alpha virt. eigenvalues --    0.23763   0.25667   0.26671   0.28486   0.29524
 Alpha virt. eigenvalues --    0.30587   0.31095   0.32238   0.32765   0.36564
 Alpha virt. eigenvalues --    0.37232   0.39299   0.40833   0.43075   0.44859
 Alpha virt. eigenvalues --    0.47585   0.48901   0.49567   0.52068   0.53915
 Alpha virt. eigenvalues --    0.60730   0.62629   0.65016   0.65126   0.65778
 Alpha virt. eigenvalues --    0.66215   0.68020   0.68736   0.70273   0.70954
 Alpha virt. eigenvalues --    0.72619   0.73699   0.74551   0.76843   0.78383
 Alpha virt. eigenvalues --    0.79010   0.79988   0.80690   0.82361   0.84048
 Alpha virt. eigenvalues --    0.85581   0.87638   0.88276   0.90318   0.91975
 Alpha virt. eigenvalues --    0.92544   0.94574   0.96920   0.98361   1.01208
 Alpha virt. eigenvalues --    1.01709   1.03077   1.04477   1.05095   1.08005
 Alpha virt. eigenvalues --    1.09381   1.10160   1.11090   1.12381   1.13333
 Alpha virt. eigenvalues --    1.13910   1.15005   1.16659   1.17461   1.20698
 Alpha virt. eigenvalues --    1.21601   1.22484   1.24324   1.27338   1.28154
 Alpha virt. eigenvalues --    1.31730   1.33980   1.34761   1.37805   1.41408
 Alpha virt. eigenvalues --    1.42482   1.45655   1.49099   1.50714   1.52397
 Alpha virt. eigenvalues --    1.56299   1.57779   1.60148   1.63843   1.65423
 Alpha virt. eigenvalues --    1.68523   1.69289   1.71631   1.74385   1.77756
 Alpha virt. eigenvalues --    1.79979   1.81730   1.84092   1.87730   1.90347
 Alpha virt. eigenvalues --    1.99991   2.03193   2.04326   2.06140   2.07974
 Alpha virt. eigenvalues --    2.10062   2.11824   2.14311   2.17034   2.19210
 Alpha virt. eigenvalues --    2.20466   2.22155   2.23322   2.26462   2.28681
 Alpha virt. eigenvalues --    2.30020   2.32241   2.33439   2.36417   2.39315
 Alpha virt. eigenvalues --    2.40647   2.42357   2.44888   2.50667   2.52218
 Alpha virt. eigenvalues --    2.53248   2.56085   2.58544   2.59959   2.61485
 Alpha virt. eigenvalues --    2.62876   2.68058   2.71407   2.74260   2.77445
 Alpha virt. eigenvalues --    2.81621   2.85382   2.90251   2.92406   2.97051
 Alpha virt. eigenvalues --    2.99258   3.00696   3.01833   3.05311   3.07978
 Alpha virt. eigenvalues --    3.12392   3.16614   3.21283   3.25381   3.30732
 Alpha virt. eigenvalues --    3.40007   3.47694   3.66635   3.79105   4.40020
 Alpha virt. eigenvalues --    4.44527   4.48062   4.48530   4.52477   4.60464
 Alpha virt. eigenvalues --    4.66934   4.72288   4.78571   4.83539   4.97166
 Alpha virt. eigenvalues --    5.15346   9.27432  74.46351
          Condensed to atoms (all electrons):
              1          2          3          4          5          6
     1  O    8.231160   0.604084  -0.075565   0.001381  -0.000041   0.000000
     2  C    0.604084   3.834391   0.294034  -0.026863   0.000878  -0.000047
     3  N   -0.075565   0.294034   7.419894   0.215200  -0.055690   0.003501
     4  C    0.001381  -0.026863   0.215200   4.498728   0.554122  -0.035493
     5  C   -0.000041   0.000878  -0.055690   0.554122   4.968475   0.534538
     6  C    0.000000  -0.000047   0.003501  -0.035493   0.534538   4.912070
     7  C    0.000000   0.000003   0.000115  -0.026851  -0.046694   0.541278
     8  Br   0.000000   0.000000   0.000001   0.000309   0.003091  -0.054973
     9  C    0.000000  -0.000007   0.004083  -0.024535  -0.043015  -0.045921
    10  C   -0.000006  -0.005772  -0.055091   0.586210  -0.041251  -0.030469
    11  C    0.001490  -0.022279  -0.000904  -0.057217   0.004928  -0.000093
    12  N   -0.092832   0.308142  -0.115330   0.001679   0.000105  -0.000002
    13  C   -0.004698  -0.027613   0.002525  -0.000235   0.000003   0.000000
    14  H    0.000263   0.002226  -0.000033   0.000007   0.000000   0.000000
    15  H    0.000492  -0.000199  -0.000008  -0.000011   0.000000   0.000000
    16  H    0.009241  -0.002031   0.000300  -0.000025   0.000000   0.000000
    17  H    0.000027   0.000257   0.002463  -0.005944  -0.000203   0.000034
    18  H   -0.000033   0.001300  -0.000216   0.004713  -0.000057  -0.000003
    19  H    0.000000  -0.000005  -0.000071   0.001659   0.000183   0.002842
    20  H    0.000000   0.000001  -0.000071   0.001411  -0.026159   0.378247
    21  H   -0.000003  -0.000008  -0.001809  -0.031245   0.375729  -0.023636
    22  H    0.003192  -0.009526   0.322344  -0.021371  -0.001392   0.000039
              7          8          9         10         11         12
     1  O    0.000000   0.000000   0.000000  -0.000006   0.001490  -0.092832
     2  C    0.000003   0.000000  -0.000007  -0.005772  -0.022279   0.308142
     3  N    0.000115   0.000001   0.004083  -0.055091  -0.000904  -0.115330
     4  C   -0.026851   0.000309  -0.024535   0.586210  -0.057217   0.001679
     5  C   -0.046694   0.003091  -0.043015  -0.041251   0.004928   0.000105
     6  C    0.541278  -0.054973  -0.045921  -0.030469  -0.000093  -0.000002
     7  C    4.822234   0.277185   0.547003  -0.044764   0.002687  -0.000058
     8  Br   0.277185  34.936939  -0.053172   0.002568  -0.000081   0.000000
     9  C    0.547003  -0.053172   4.956225   0.533079  -0.049302   0.001951
    10  C   -0.044764   0.002568   0.533079   4.910670   0.327331  -0.022900
    11  C    0.002687  -0.000081  -0.049302   0.327331   4.883634   0.216203
    12  N   -0.000058   0.000000   0.001951  -0.022900   0.216203   7.416077
    13  C    0.000001   0.000000  -0.000043   0.002590  -0.039584   0.212614
    14  H    0.000000   0.000000  -0.000006  -0.000247  -0.002501  -0.045977
    15  H    0.000000   0.000000   0.000002   0.000010  -0.001037  -0.050997
    16  H    0.000000   0.000000   0.000001  -0.000072   0.002608  -0.028874
    17  H   -0.000073   0.000002  -0.000811  -0.050310   0.398259  -0.051646
    18  H    0.000227  -0.000008  -0.005376  -0.050350   0.415573  -0.037394
    19  H   -0.024427  -0.000282   0.378949  -0.035509  -0.001196   0.000021
    20  H   -0.027340  -0.000612   0.002662   0.000394   0.000008   0.000000
    21  H    0.001825  -0.000094   0.000398   0.002275  -0.000149   0.000001
    22  H    0.000001   0.000000  -0.000059   0.002491  -0.000307   0.003092
             13         14         15         16         17         18
     1  O   -0.004698   0.000263   0.000492   0.009241   0.000027  -0.000033
     2  C   -0.027613   0.002226  -0.000199  -0.002031   0.000257   0.001300
     3  N    0.002525  -0.000033  -0.000008   0.000300   0.002463  -0.000216
     4  C   -0.000235   0.000007  -0.000011  -0.000025  -0.005944   0.004713
     5  C    0.000003   0.000000   0.000000   0.000000  -0.000203  -0.000057
     6  C    0.000000   0.000000   0.000000   0.000000   0.000034  -0.000003
     7  C    0.000001   0.000000   0.000000   0.000000  -0.000073   0.000227
     8  Br   0.000000   0.000000   0.000000   0.000000   0.000002  -0.000008
     9  C   -0.000043  -0.000006   0.000002   0.000001  -0.000811  -0.005376
    10  C    0.002590  -0.000247   0.000010  -0.000072  -0.050310  -0.050350
    11  C   -0.039584  -0.002501  -0.001037   0.002608   0.398259   0.415573
    12  N    0.212614  -0.045977  -0.050997  -0.028874  -0.051646  -0.037394
    13  C    4.949225   0.397308   0.399440   0.392643   0.000752  -0.002097
    14  H    0.397308   0.533066  -0.038386  -0.020544  -0.000444   0.002758
    15  H    0.399440  -0.038386   0.543009  -0.022554   0.002974  -0.001221
    16  H    0.392643  -0.020544  -0.022554   0.427620  -0.000142   0.000096
    17  H    0.000752  -0.000444   0.002974  -0.000142   0.539250  -0.032204
    18  H   -0.002097   0.002758  -0.001221   0.000096  -0.032204   0.506167
    19  H   -0.000004  -0.000002   0.000000   0.000000   0.000345   0.001795
    20  H    0.000000   0.000000   0.000000   0.000000   0.000000   0.000000
    21  H    0.000000   0.000000   0.000000   0.000000   0.000002   0.000002
    22  H   -0.000047   0.000001   0.000003  -0.000006   0.000058   0.000005
             19         20         21         22
     1  O    0.000000   0.000000  -0.000003   0.003192
     2  C   -0.000005   0.000001  -0.000008  -0.009526
     3  N   -0.000071  -0.000071  -0.001809   0.322344
     4  C    0.001659   0.001411  -0.031245  -0.021371
     5  C    0.000183  -0.026159   0.375729  -0.001392
     6  C    0.002842   0.378247  -0.023636   0.000039
     7  C   -0.024427  -0.027340   0.001825   0.000001
     8  Br  -0.000282  -0.000612  -0.000094   0.000000
     9  C    0.378949   0.002662   0.000398  -0.000059
    10  C   -0.035509   0.000394   0.002275   0.002491
    11  C   -0.001196   0.000008  -0.000149  -0.000307
    12  N    0.000021   0.000000   0.000001   0.003092
    13  C   -0.000004   0.000000   0.000000  -0.000047
    14  H   -0.000002   0.000000   0.000000   0.000001
    15  H    0.000000   0.000000   0.000000   0.000003
    16  H    0.000000   0.000000   0.000000  -0.000006
    17  H    0.000345   0.000000   0.000002   0.000058
    18  H    0.001795   0.000000   0.000002   0.000005
    19  H    0.445674  -0.000106   0.000011   0.000002
    20  H   -0.000106   0.437393  -0.001816  -0.000004
    21  H    0.000011  -0.001816   0.455780   0.002402
    22  H    0.000002  -0.000004   0.002402   0.287123
 Mulliken atomic charges:
              1
     1  O   -0.678155
     2  C    1.049034
     3  N   -0.959671
     4  C    0.364371
     5  C   -0.227550
     6  C   -0.181913
     7  C   -0.022351
     8  Br  -0.110874
     9  C   -0.202106
    10  C   -0.030877
    11  C   -0.078071
    12  N   -0.713874
    13  C   -0.282779
    14  H    0.172510
    15  H    0.168482
    16  H    0.241740
    17  H    0.197352
    18  H    0.196325
    19  H    0.230120
    20  H    0.235994
    21  H    0.220335
    22  H    0.411959
 Sum of Mulliken charges=   0.00000
 Atomic charges with hydrogens summed into heavy atoms:
              1
     1  O   -0.678155
     2  C    1.049034
     3  N   -0.547712
     4  C    0.364371
     5  C   -0.007215
     6  C    0.054080
     7  C   -0.022351
     8  Br  -0.110874
     9  C    0.028014
    10  C   -0.030877
    11  C    0.315606
    12  N   -0.713874
    13  C    0.299953
    14  H    0.000000
    15  H    0.000000
    16  H    0.000000
    17  H    0.000000
    18  H    0.000000
    19  H    0.000000
    20  H    0.000000
    21  H    0.000000
    22  H    0.000000
 Sum of Mulliken charges=   0.00000
 Entering OneElI...
 OneElI was handed  6208886 working-precision words.
 Multipole integrals L=0 to 4 MinM= 0 MaxM= 0.
 Requested accuracy = 0.1000D-12
 PrsmSu:  NPrtUS=   1 ThrOK=F
 PRISM was handed     5966575 working-precision words and  2613 shell-pairs
 Electronic moments (au):
  -120.00000000     0.55830136    -0.54201275     0.57024926
 -3712.78193716  -600.83413726   -99.52002271     8.92214458
    -3.25810002     1.12298203  1561.79918740  -243.20906319
   -25.21083795  1450.61817476  1667.19634162   882.12347712
   178.43511221    46.91346086    -7.42828738    38.28979887
*************** -8224.72087797  -449.60138639  1737.02631974
 -3479.17096860 -3531.18770484  -159.82897140     5.52300182
    42.58381918-15426.64353951 -2927.68553009  -714.67699724
  -487.53279367  -261.17977454  -321.14946459
 Electronic spatial extent (au):  <R**2>=  4413.1361
 Nuclear    moments (au):
   120.00000000     0.00000000     0.00000000     0.00000000
  3628.95902412   544.44654465    31.97682967     0.00000000
     0.00000000     0.00000000 -1283.89405340   251.05940453
    21.57462774 -1420.79447609 -1744.81527452  -864.63803305
  -142.10355272   -55.91129183    11.70714064   -51.83989615
174783.75954099  6352.55963280    97.27481280 -1173.47135728
  3313.22196001  3400.75070715   198.96917376   -30.73919411
   -42.72796702 13341.25438348  1014.90452125   295.46810139
   572.90990957   219.93036044   283.16479125
 Total      moments (au):
     0.00000000     0.55830136    -0.54201275     0.57024926
   -83.82291304   -56.38759262   -67.54319304     8.92214458
    -3.25810002     1.12298203   277.90513400     7.85034134
    -3.63621021    29.82369867   -77.61893290    17.48544407
    36.33155949    -8.99783096     4.27885326   -13.55009728
-12450.67302619 -1872.16124517  -352.32657359   563.55496246
  -165.94900860  -130.43699768    39.14020235   -25.21619229
    -0.14414783 -2085.38915603 -1912.78100884  -419.20889584
    85.37711590   -41.24941410   -37.98467334
 Charge=     0.0000 electrons
 Dipole moment (field-independent basis, Debye):
    X=     1.4191    Y=    -1.3777    Z=     1.4494  Tot=     2.4520
 Quadrupole moment (field-independent basis, Debye-Ang):
   XX=  -112.7447   YY=   -75.8432   ZZ=   -90.8479
   XY=    12.0006   XZ=    -4.3823   YZ=     1.5104
 Traceless Quadrupole moment (field-independent basis, Debye-Ang):
   XX=   -19.5994   YY=    17.3020   ZZ=     2.2974
   XY=    12.0006   XZ=    -4.3823   YZ=     1.5104
 Octapole moment (field-independent basis, Debye-Ang**2):
  XXX=   197.8022  YYY=     5.5876  ZZZ=    -2.5881  XYY=    21.2274
  XXY=   -55.2462  XXZ=    12.4455  XZZ=    25.8594  YZZ=    -6.4043
  YYZ=     3.0455  XYZ=    -9.6444
 Hexadecapole moment (field-independent basis, Debye-Ang**3):
 XXXX= -4689.5201 YYYY=  -705.1456 ZZZZ=  -132.7031 XXXY=   212.2618
 XXXZ=   -62.5043 YYYX=   -49.1288 YYYZ=    14.7421 ZZZX=    -9.4976
 ZZZY=    -0.0543 XXYY=  -785.4575 XXZZ=  -720.4450 YYZZ=  -157.8942
 XXYZ=    32.1571 YYXZ=   -15.5365 ZZXY=   -14.3068
 N-N= 1.016933712223D+03 E-N=-9.407093492499D+03  KE= 3.086617543353D+03
 Entering OneElI...
 OneElI was handed  6104140 working-precision words.
 Calculate electrostatic properties
    NBasis =   228  MinDer = 0  MaxDer = 0
    NGrid  =    22  NMatD  =   1
 Requested accuracy = 0.1000D-12
 PrsmSu:  NPrtUS=   1 ThrOK=F
 PRISM was handed     5882646 working-precision words and  2378 shell-pairs
 --------------------------------------------------------
       Center         ----      EFG at Nuclei      ----
                      3XX-RR        3YY-RR        3ZZ-RR
 --------------------------------------------------------
     1   Atom       -0.946308      1.239874     -0.293565
     2   Atom        0.247164      0.182235     -0.429399
     3   Atom       -0.619182     -0.345357      0.964540
     4   Atom       -0.020995      0.300773     -0.279778
     5   Atom        0.148221      0.087441     -0.235661
     6   Atom        0.191568      0.138109     -0.329677
     7   Atom       -0.263773      0.295657     -0.031884
     8   Atom       -6.217405      2.673823      3.543581
     9   Atom        0.157531      0.142217     -0.299747
    10   Atom        0.118339      0.109128     -0.227467
    11   Atom       -0.192943      0.093493      0.099451
    12   Atom       -0.434358     -0.557464      0.991821
    13   Atom       -0.041169     -0.082094      0.123263
    14   Atom        0.088247     -0.055164     -0.033084
    15   Atom        0.124097      0.055461     -0.179557
    16   Atom       -0.156988      0.065658      0.091330
    17   Atom        0.127601      0.133987     -0.261588
    18   Atom        0.107040     -0.172595      0.065556
    19   Atom        0.116629     -0.278488      0.161859
    20   Atom       -0.090010     -0.068598      0.158609
    21   Atom        0.117738     -0.288890      0.171152
    22   Atom        0.145631     -0.342858      0.197227
 --------------------------------------------------------
                        XY            XZ            YZ
 --------------------------------------------------------
     1   Atom        0.890239     -0.161456      0.208845
     2   Atom       -0.124912      0.171774     -0.005401
     3   Atom       -0.022343     -0.069300     -0.523292
     4   Atom        0.101334     -0.022546     -0.045261
     5   Atom       -0.021913     -0.012722     -0.007244
     6   Atom       -0.013339     -0.049504     -0.038628
     7   Atom        0.172553     -0.007848     -0.042990
     8   Atom        2.808590      0.299193     -0.059908
     9   Atom       -0.009515     -0.026408     -0.044221
    10   Atom       -0.005537     -0.037895     -0.011013
    11   Atom        0.153952     -0.154396      0.058571
    12   Atom        0.023793     -0.506445      0.064241
    13   Atom       -0.262083     -0.021727     -0.059572
    14   Atom        0.088353      0.093761     -0.193288
    15   Atom       -0.047832      0.068032      0.165211
    16   Atom        0.135113     -0.125483      0.061112
    17   Atom       -0.005796      0.038152      0.067195
    18   Atom        0.078107      0.034785     -0.165361
    19   Atom        0.101172     -0.009553      0.051444
    20   Atom       -0.220412      0.039764      0.036488
    21   Atom        0.098424      0.001546      0.016168
    22   Atom        0.117069      0.034759     -0.185553
 --------------------------------------------------------


 ---------------------------------------------------------------------------------
              Nuclear Quadrupole in Principal Axis System
 ---------------------------------------------------------------------------------

       Atom             a.u.   MegaHertz   Gauss  10(-4) cm-1        Axes

              Baa    -1.3118    94.917    33.869    31.661  0.9166 -0.3374  0.2145
     1 O(17)  Bbb    -0.2558    18.510     6.605     6.174 -0.2280 -0.0003  0.9737
              Bcc     1.5676  -113.428   -40.474   -37.835  0.3284  0.9414  0.0771
 
              Baa    -0.4714   -63.258   -22.572   -21.101 -0.2385 -0.0376  0.9704
     2 C(13)  Bbb     0.1022    13.721     4.896     4.577  0.5272  0.8342  0.1619
              Bcc     0.3692    49.538    17.676    16.524  0.8156 -0.5502  0.1792
 
              Baa    -0.6387   -24.632    -8.789    -8.216  0.9280  0.3406  0.1513
     3 N(14)  Bbb    -0.5111   -19.714    -7.034    -6.576 -0.3712  0.8805  0.2948
              Bcc     1.1498    44.346    15.824    14.792 -0.0328 -0.3297  0.9435
 
              Baa    -0.2842   -38.132   -13.606   -12.719  0.0596  0.0667  0.9960
     4 C(13)  Bbb    -0.0499    -6.696    -2.389    -2.233  0.9586 -0.2820 -0.0385
              Bcc     0.3341    44.827    15.996    14.953  0.2783  0.9571 -0.0808
 
              Baa    -0.2363   -31.706   -11.314   -10.576  0.0345  0.0247  0.9991
     5 C(13)  Bbb     0.0807    10.833     3.866     3.614  0.3028  0.9524 -0.0340
              Bcc     0.1555    20.873     7.448     6.962  0.9524 -0.3037 -0.0253
 
              Baa    -0.3377   -45.310   -16.168   -15.114  0.0949  0.0832  0.9920
     6 C(13)  Bbb     0.1398    18.757     6.693     6.257  0.1597  0.9823 -0.0977
              Bcc     0.1979    26.552     9.475     8.857  0.9826 -0.1677 -0.0799
 
              Baa    -0.3128   -41.972   -14.977   -14.000  0.9617 -0.2738 -0.0150
     7 C(13)  Bbb    -0.0368    -4.936    -1.761    -1.646  0.0454  0.1049  0.9934
              Bcc     0.3496    46.908    16.738    15.647  0.2704  0.9561 -0.1133
 
              Baa    -7.0390  -944.194  -336.912  -314.949  0.9602 -0.2778 -0.0287
     8 Br(79) Bbb     3.4779   466.513   166.463   155.612  0.2538  0.9109 -0.3253
              Bcc     3.5611   477.681   170.449   159.337  0.1165  0.3051  0.9452
 
              Baa    -0.3057   -41.026   -14.639   -13.685  0.0587  0.0993  0.9933
     9 C(13)  Bbb     0.1436    19.267     6.875     6.427  0.4025  0.9082 -0.1146
              Bcc     0.1621    21.759     7.764     7.258  0.9135 -0.4065 -0.0133
 
              Baa    -0.2320   -31.127   -11.107   -10.383  0.1080  0.0338  0.9936
    10 C(13)  Bbb     0.1082    14.521     5.181     4.844  0.2850  0.9564 -0.0636
              Bcc     0.1238    16.606     5.926     5.539  0.9524 -0.2901 -0.0937
 
              Baa    -0.3242   -43.508   -15.525   -14.513  0.8567 -0.3666  0.3629
    11 C(13)  Bbb     0.1545    20.738     7.400     6.917  0.0963  0.8047  0.5858
              Bcc     0.1697    22.770     8.125     7.595 -0.5068 -0.4669  0.7247
 
              Baa    -0.6235   -24.048    -8.581    -8.022  0.7919 -0.5478  0.2700
    12 N(14)  Bbb    -0.5315   -20.500    -7.315    -6.838  0.5302  0.8360  0.1410
              Bcc     1.1551    44.548    15.896    14.860 -0.3030  0.0315  0.9525
 
              Baa    -0.3320   -44.557   -15.899   -14.863  0.6691  0.7321  0.1277
    13 C(13)  Bbb     0.1232    16.534     5.900     5.515 -0.3022  0.1110  0.9468
              Bcc     0.2088    28.023     9.999     9.348  0.6789 -0.6721  0.2955
 
              Baa    -0.2824  -150.661   -53.760   -50.255 -0.3279  0.6829  0.6528
    14 H(1)   Bbb     0.1303    69.507    24.802    23.185  0.8858  0.4624 -0.0387
              Bcc     0.1521    81.155    28.958    27.070  0.3283 -0.5656  0.7565
 
              Baa    -0.2815  -150.214   -53.600   -50.106 -0.1992 -0.4540  0.8684
    15 H(1)   Bbb     0.1297    69.189    24.688    23.079  0.6902  0.5641  0.4532
              Bcc     0.1519    81.024    28.912    27.027  0.6957 -0.6896 -0.2010
 
              Baa    -0.2740  -146.215   -52.173   -48.772  0.8442 -0.4000  0.3568
    16 H(1)   Bbb     0.1292    68.953    24.604    23.000  0.4593  0.8830 -0.0968
              Bcc     0.1448    77.263    27.569    25.772 -0.2763  0.2456  0.9291
 
              Baa    -0.2764  -147.461   -52.618   -49.188 -0.0951 -0.1622  0.9822
    17 H(1)   Bbb     0.1313    70.039    24.992    23.362  0.9948 -0.0511  0.0879
              Bcc     0.1451    77.423    27.626    25.825  0.0359  0.9854  0.1662
 
              Baa    -0.2763  -147.426   -52.605   -49.176 -0.2174  0.8698  0.4429
    18 H(1)   Bbb     0.1252    66.818    23.842    22.288  0.9603  0.1095  0.2565
              Bcc     0.1511    80.608    28.763    26.888 -0.1746 -0.4811  0.8591
 
              Baa    -0.3087  -164.702   -58.770   -54.939 -0.2323  0.9664 -0.1104
    19 H(1)   Bbb     0.1407    75.095    26.796    25.049  0.9699  0.2216 -0.1012
              Bcc     0.1679    89.607    31.974    29.890  0.0733  0.1306  0.9887
 
              Baa    -0.3062  -163.395   -58.303   -54.503  0.7194  0.6850 -0.1153
    20 H(1)   Bbb     0.1413    75.404    26.906    25.152 -0.6854  0.7270  0.0422
              Bcc     0.1649    87.991    31.397    29.350  0.1127  0.0487  0.9924
 
              Baa    -0.3120  -166.443   -59.391   -55.519 -0.2231  0.9743 -0.0319
    21 H(1)   Bbb     0.1395    74.428    26.558    24.826  0.9638  0.2155 -0.1571
              Bcc     0.1725    92.016    32.833    30.693  0.1462  0.0658  0.9871
 
              Baa    -0.4265  -227.573   -81.204   -75.910 -0.2087  0.9341  0.2895
    22 H(1)   Bbb     0.1717    91.593    32.683    30.552  0.9778  0.1940  0.0789
              Bcc     0.2549   135.980    48.521    45.358 -0.0175 -0.2996  0.9539
 

 ---------------------------------------------------------------------------------

 No NMR shielding tensors so no spin-rotation constants.
 Leave Link  601 at Wed Jun  8 08:37:54 2016, MaxMem=    6291456 cpu:       0.3
 Merz-Kollman atomic radii used.
 Atom Element Radius
    1     8    1.40
    2     6    1.50
    3     7    1.50
    4     6    1.50
    5     6    1.50
    6     6    1.50
    7     6    1.50
    8    35    2.30
    9     6    1.50
   10     6    1.50
   11     6    1.50
   12     7    1.50
   13     6    1.50
   14     1    1.20
   15     1    1.20
   16     1    1.20
   17     1    1.20
   18     1    1.20
   19     1    1.20
   20     1    1.20
   21     1    1.20
   22     1    1.20
 Generate VDW surfaces: Layer= 4 Dens= 6 Start= 1.400 Inc= 0.200

 **********************************************************************

            Electrostatic Properties Using The SCF Density

 **********************************************************************

       Atomic Center    1 is at  -4.483946  0.950487 -0.334903
       Atomic Center    2 is at  -3.324719  0.513878 -0.082565
       Atomic Center    3 is at  -2.248784  1.401902  0.252847
       Atomic Center    4 is at  -0.901299  0.987973  0.172027
       Atomic Center    5 is at   0.139630  1.927835  0.020904
       Atomic Center    6 is at   1.445285  1.525682 -0.082557
       Atomic Center    7 is at   1.767436  0.182532 -0.028642
       Atomic Center    8 is at   3.622269 -0.368178 -0.092154
       Atomic Center    9 is at   0.753872 -0.756406  0.182073
       Atomic Center   10 is at  -0.594678 -0.371169  0.238674
       Atomic Center   11 is at  -1.670909 -1.291580  0.456703
       Atomic Center   12 is at  -3.018202 -0.807239 -0.081150
       Atomic Center   13 is at  -4.050055 -1.833957 -0.282523
       Atomic Center   14 is at  -3.688393 -2.580639 -1.004900
       Atomic Center   15 is at  -4.268350 -2.327785  0.676774
       Atomic Center   16 is at  -4.965121 -1.363230 -0.668754
       Atomic Center   17 is at  -1.770014 -1.458123  1.540628
       Atomic Center   18 is at  -1.421137 -2.241104 -0.038091
       Atomic Center   19 is at   1.013718 -1.801387  0.305318
       Atomic Center   20 is at   2.229526  2.264647 -0.208224
       Atomic Center   21 is at  -0.098115  2.984819 -0.013654
       Atomic Center   22 is at  -2.458428  2.333774  0.549079
      ESP Fit Center   23 is at  -4.483946  0.950487  1.625097
      ESP Fit Center   24 is at  -4.687699  1.303398  1.582266
      ESP Fit Center   25 is at  -4.891453  0.950487  1.582266
      ESP Fit Center   26 is at  -4.687699  0.597575  1.582266
      ESP Fit Center   27 is at  -4.483946  1.747690  1.455646
      ESP Fit Center   28 is at  -4.882548  1.640885  1.455646
      ESP Fit Center   29 is at  -5.174345  1.349089  1.455646
      ESP Fit Center   30 is at  -5.281150  0.950487  1.455646
      ESP Fit Center   31 is at  -5.174345  0.551885  1.455646
      ESP Fit Center   32 is at  -4.882548  0.260088  1.455646
      ESP Fit Center   33 is at  -4.377647  2.097631  1.250770
      ESP Fit Center   34 is at  -4.799222  2.058567  1.250770
      ESP Fit Center   35 is at  -5.178217  1.869850  1.250770
      ESP Fit Center   36 is at  -5.463446  1.556968  1.250770
      ESP Fit Center   37 is at  -5.616389  1.162177  1.250770
      ESP Fit Center   38 is at  -5.616389  0.738796  1.250770
      ESP Fit Center   39 is at  -5.463446  0.344006  1.250770
      ESP Fit Center   40 is at  -5.178217  0.031124  1.250770
      ESP Fit Center   41 is at  -4.276655  2.392225  0.976593
      ESP Fit Center   42 is at  -4.691236  2.392225  0.976593
      ESP Fit Center   43 is at  -5.089024  2.275424  0.976593
      ESP Fit Center   44 is at  -5.437792  2.051284  0.976593
      ESP Fit Center   45 is at  -5.709285  1.737965  0.976593
      ESP Fit Center   46 is at  -5.881509  1.360848  0.976593
      ESP Fit Center   47 is at  -5.940510  0.950487  0.976593
      ESP Fit Center   48 is at  -5.881509  0.540125  0.976593
      ESP Fit Center   49 is at  -5.709285  0.163009  0.976593
      ESP Fit Center   50 is at  -5.437792 -0.150311  0.976593
      ESP Fit Center   51 is at  -5.089024 -0.374450  0.976593
      ESP Fit Center   52 is at  -4.377365  2.644547  0.645097
      ESP Fit Center   53 is at  -4.802009  2.617831  0.645097
      ESP Fit Center   54 is at  -5.206668  2.486349  0.645097
      ESP Fit Center   55 is at  -5.565916  2.258363  0.645097
      ESP Fit Center   56 is at  -5.857179  1.948199  0.645097
      ESP Fit Center   57 is at  -6.062158  1.575345  0.645097
      ESP Fit Center   58 is at  -6.167971  1.163229  0.645097
      ESP Fit Center   59 is at  -6.167971  0.737745  0.645097
      ESP Fit Center   60 is at  -6.062158  0.325628  0.645097
      ESP Fit Center   61 is at  -5.857179 -0.047226  0.645097
      ESP Fit Center   62 is at  -5.565916 -0.357390  0.645097
      ESP Fit Center   63 is at  -4.069151  2.767821  0.270770
      ESP Fit Center   64 is at  -4.483946  2.814557  0.270770
      ESP Fit Center   65 is at  -4.898741  2.767821  0.270770
      ESP Fit Center   66 is at  -5.292736  2.629956  0.270770
      ESP Fit Center   67 is at  -5.646175  2.407876  0.270770
      ESP Fit Center   68 is at  -5.941335  2.112716  0.270770
      ESP Fit Center   69 is at  -6.163416  1.759277  0.270770
      ESP Fit Center   70 is at  -6.301280  1.365281  0.270770
      ESP Fit Center   71 is at  -6.348017  0.950487  0.270770
      ESP Fit Center   72 is at  -6.301280  0.535692  0.270770
      ESP Fit Center   73 is at  -6.163416  0.141697  0.270770
      ESP Fit Center   74 is at  -5.941335 -0.211742  0.270770
      ESP Fit Center   75 is at  -3.962463  2.828699 -0.130027
      ESP Fit Center   76 is at  -4.378415  2.896891 -0.130027
      ESP Fit Center   77 is at  -4.799301  2.874071 -0.130027
      ESP Fit Center   78 is at  -5.205442  2.761307 -0.130027
      ESP Fit Center   79 is at  -5.577847  2.563870 -0.130027
      ESP Fit Center   80 is at  -5.899102  2.290994 -0.130027
      ESP Fit Center   81 is at  -6.154186  1.955437 -0.130027
      ESP Fit Center   82 is at  -6.331171  1.572889 -0.130027
      ESP Fit Center   83 is at  -6.421782  1.161239 -0.130027
      ESP Fit Center   84 is at  -6.421782  0.739734 -0.130027
      ESP Fit Center   85 is at  -6.331171  0.328084 -0.130027
      ESP Fit Center   86 is at  -6.154186 -0.054463 -0.130027
      ESP Fit Center   87 is at  -3.962463  2.828699 -0.539779
      ESP Fit Center   88 is at  -4.378415  2.896891 -0.539779
      ESP Fit Center   89 is at  -4.799301  2.874071 -0.539779
      ESP Fit Center   90 is at  -5.205442  2.761307 -0.539779
      ESP Fit Center   91 is at  -5.577847  2.563870 -0.539779
      ESP Fit Center   92 is at  -5.899102  2.290994 -0.539779
      ESP Fit Center   93 is at  -6.154186  1.955437 -0.539779
      ESP Fit Center   94 is at  -6.331171  1.572889 -0.539779
      ESP Fit Center   95 is at  -6.421782  1.161239 -0.539779
      ESP Fit Center   96 is at  -6.421782  0.739734 -0.539779
      ESP Fit Center   97 is at  -6.331171  0.328084 -0.539779
      ESP Fit Center   98 is at  -6.154186 -0.054463 -0.539779
      ESP Fit Center   99 is at  -3.675156  2.629956 -0.940576
      ESP Fit Center  100 is at  -4.069151  2.767821 -0.940576
      ESP Fit Center  101 is at  -4.483946  2.814557 -0.940576
      ESP Fit Center  102 is at  -4.898741  2.767821 -0.940576
      ESP Fit Center  103 is at  -5.292736  2.629956 -0.940576
      ESP Fit Center  104 is at  -5.646175  2.407876 -0.940576
      ESP Fit Center  105 is at  -5.941335  2.112716 -0.940576
      ESP Fit Center  106 is at  -6.163416  1.759277 -0.940576
      ESP Fit Center  107 is at  -6.301280  1.365281 -0.940576
      ESP Fit Center  108 is at  -6.348017  0.950487 -0.940576
      ESP Fit Center  109 is at  -6.301280  0.535692 -0.940576
      ESP Fit Center  110 is at  -6.163416  0.141697 -0.940576
      ESP Fit Center  111 is at  -3.574428  2.383657 -1.314903
      ESP Fit Center  112 is at  -3.959417  2.564819 -1.314903
      ESP Fit Center  113 is at  -4.377365  2.644547 -1.314903
      ESP Fit Center  114 is at  -4.802009  2.617831 -1.314903
      ESP Fit Center  115 is at  -5.206668  2.486349 -1.314903
      ESP Fit Center  116 is at  -5.565916  2.258363 -1.314903
      ESP Fit Center  117 is at  -5.857179  1.948199 -1.314903
      ESP Fit Center  118 is at  -6.062158  1.575345 -1.314903
      ESP Fit Center  119 is at  -6.167971  1.163229 -1.314903
      ESP Fit Center  120 is at  -6.167971  0.737745 -1.314903
      ESP Fit Center  121 is at  -6.062158  0.325628 -1.314903
      ESP Fit Center  122 is at  -5.857179 -0.047226 -1.314903
      ESP Fit Center  123 is at  -3.530099  2.051284 -1.646399
      ESP Fit Center  124 is at  -3.878867  2.275424 -1.646399
      ESP Fit Center  125 is at  -4.276655  2.392225 -1.646399
      ESP Fit Center  126 is at  -4.691236  2.392225 -1.646399
      ESP Fit Center  127 is at  -5.089024  2.275424 -1.646399
      ESP Fit Center  128 is at  -5.437792  2.051284 -1.646399
      ESP Fit Center  129 is at  -5.709285  1.737965 -1.646399
      ESP Fit Center  130 is at  -5.881509  1.360848 -1.646399
      ESP Fit Center  131 is at  -5.940510  0.950487 -1.646399
      ESP Fit Center  132 is at  -5.881509  0.540125 -1.646399
      ESP Fit Center  133 is at  -5.709285  0.163009 -1.646399
      ESP Fit Center  134 is at  -3.632564  1.726624 -1.920576
      ESP Fit Center  135 is at  -3.970429  1.981768 -1.920576
      ESP Fit Center  136 is at  -4.377647  2.097631 -1.920576
      ESP Fit Center  137 is at  -4.799222  2.058567 -1.920576
      ESP Fit Center  138 is at  -5.178217  1.869850 -1.920576
      ESP Fit Center  139 is at  -5.463446  1.556968 -1.920576
      ESP Fit Center  140 is at  -5.616389  1.162177 -1.920576
      ESP Fit Center  141 is at  -5.616389  0.738796 -1.920576
      ESP Fit Center  142 is at  -5.463446  0.344006 -1.920576
      ESP Fit Center  143 is at  -5.178217  0.031124 -1.920576
      ESP Fit Center  144 is at  -4.799222 -0.157593 -1.920576
      ESP Fit Center  145 is at  -4.377647 -0.196658 -1.920576
      ESP Fit Center  146 is at  -3.686742  0.950487 -2.125452
      ESP Fit Center  147 is at  -3.793547  1.349089 -2.125452
      ESP Fit Center  148 is at  -4.085344  1.640885 -2.125452
      ESP Fit Center  149 is at  -4.483946  1.747690 -2.125452
      ESP Fit Center  150 is at  -4.882548  1.640885 -2.125452
      ESP Fit Center  151 is at  -5.174345  1.349089 -2.125452
      ESP Fit Center  152 is at  -5.281150  0.950487 -2.125452
      ESP Fit Center  153 is at  -5.174345  0.551885 -2.125452
      ESP Fit Center  154 is at  -4.882548  0.260088 -2.125452
      ESP Fit Center  155 is at  -4.483946  0.153283 -2.125452
      ESP Fit Center  156 is at  -4.085344  0.260088 -2.125452
      ESP Fit Center  157 is at  -4.076439  0.950487 -2.252072
      ESP Fit Center  158 is at  -4.280192  1.303398 -2.252072
      ESP Fit Center  159 is at  -4.687699  1.303398 -2.252072
      ESP Fit Center  160 is at  -4.891453  0.950487 -2.252072
      ESP Fit Center  161 is at  -4.687699  0.597575 -2.252072
      ESP Fit Center  162 is at  -4.280192  0.597575 -2.252072
      ESP Fit Center  163 is at  -4.483946  0.950487 -2.294903
      ESP Fit Center  164 is at  -3.324719  0.513878  2.017435
      ESP Fit Center  165 is at  -3.529564  0.868680  1.977084
      ESP Fit Center  166 is at  -3.734409  0.513878  1.977084
      ESP Fit Center  167 is at  -3.529564  0.159077  1.977084
      ESP Fit Center  168 is at  -3.119875  0.159077  1.977084
      ESP Fit Center  169 is at  -3.726537  1.209847  1.857582
      ESP Fit Center  170 is at  -4.020688  0.915696  1.857582
      ESP Fit Center  171 is at  -4.128355  0.513878  1.857582
      ESP Fit Center  172 is at  -4.020688  0.112061  1.857582
      ESP Fit Center  173 is at  -3.726537 -0.182090  1.857582
      ESP Fit Center  174 is at  -4.027812  1.444923  1.663521
      ESP Fit Center  175 is at  -4.316666  1.128065  1.663521
      ESP Fit Center  176 is at  -4.471552  0.728258  1.663521
      ESP Fit Center  177 is at  -4.471552  0.299498  1.663521
      ESP Fit Center  178 is at  -4.316666 -0.100309  1.663521
      ESP Fit Center  179 is at  -4.573917 -0.288932  1.402359
      ESP Fit Center  180 is at  -2.158022  0.513878 -1.828652
      ESP Fit Center  181 is at  -2.236806  0.935338 -1.828652
      ESP Fit Center  182 is at  -2.804678  1.558263 -1.828652
      ESP Fit Center  183 is at  -3.217070  1.675599 -1.828652
      ESP Fit Center  184 is at  -2.236806  0.092418 -1.828652
      ESP Fit Center  185 is at  -2.521084  0.513878 -2.022713
      ESP Fit Center  186 is at  -2.628751  0.915696 -2.022713
      ESP Fit Center  187 is at  -2.922902  1.209847 -2.022713
      ESP Fit Center  188 is at  -3.324719  1.317513 -2.022713
      ESP Fit Center  189 is at  -3.726537 -0.182090 -2.022713
      ESP Fit Center  190 is at  -2.628751  0.112061 -2.022713
      ESP Fit Center  191 is at  -2.915030  0.513878 -2.142215
      ESP Fit Center  192 is at  -3.119875  0.868680 -2.142215
      ESP Fit Center  193 is at  -3.529564  0.868680 -2.142215
      ESP Fit Center  194 is at  -3.734409  0.513878 -2.142215
      ESP Fit Center  195 is at  -3.529564  0.159077 -2.142215
      ESP Fit Center  196 is at  -3.119875  0.159077 -2.142215
      ESP Fit Center  197 is at  -3.324719  0.513878 -2.182565
      ESP Fit Center  198 is at  -2.248784  1.401902  2.352847
      ESP Fit Center  199 is at  -1.839095  1.401902  2.312496
      ESP Fit Center  200 is at  -2.043939  1.756704  2.312496
      ESP Fit Center  201 is at  -2.453629  1.756704  2.312496
      ESP Fit Center  202 is at  -2.658474  1.401902  2.312496
      ESP Fit Center  203 is at  -2.453629  1.047101  2.312496
      ESP Fit Center  204 is at  -2.043939  1.047101  2.312496
      ESP Fit Center  205 is at  -1.445149  1.401902  2.192994
      ESP Fit Center  206 is at  -1.552816  1.803720  2.192994
      ESP Fit Center  207 is at  -1.846967  2.097871  2.192994
      ESP Fit Center  208 is at  -2.944753  1.803720  2.192994
      ESP Fit Center  209 is at  -3.052419  1.401902  2.192994
      ESP Fit Center  210 is at  -2.944753  1.000085  2.192994
      ESP Fit Center  211 is at  -2.650602  0.705934  2.192994
      ESP Fit Center  212 is at  -2.248784  0.598267  2.192994
      ESP Fit Center  213 is at  -1.846967  0.705934  2.192994
      ESP Fit Center  214 is at  -1.552816  1.000085  2.192994
      ESP Fit Center  215 is at  -1.386584  2.187901  1.998934
      ESP Fit Center  216 is at  -3.395616  1.616282  1.998934
      ESP Fit Center  217 is at  -3.395616  1.187522  1.998934
      ESP Fit Center  218 is at  -3.240730  0.787715  1.998934
      ESP Fit Center  219 is at  -2.951877  0.470858  1.998934
      ESP Fit Center  220 is at  -2.568066  0.279743  1.998934
      ESP Fit Center  221 is at  -2.141135  0.240182  1.998934
      ESP Fit Center  222 is at  -1.728742  0.357517  1.998934
      ESP Fit Center  223 is at  -1.276366  2.524133  1.737772
      ESP Fit Center  224 is at  -3.673559  1.820254  1.737772
      ESP Fit Center  225 is at  -1.629614  3.034521 -0.913850
      ESP Fit Center  226 is at  -2.038317  3.135257 -0.913850
      ESP Fit Center  227 is at  -3.240674  2.838903 -0.913850
      ESP Fit Center  228 is at  -1.631924  2.752637 -1.232077
      ESP Fit Center  229 is at  -2.037457  2.871712 -1.232077
      ESP Fit Center  230 is at  -2.460111  2.871712 -1.232077
      ESP Fit Center  231 is at  -2.865644  2.752637 -1.232077
      ESP Fit Center  232 is at  -3.221203  2.524133 -1.232077
      ESP Fit Center  233 is at  -1.386584  2.187901 -1.493239
      ESP Fit Center  234 is at  -1.728742  2.446287 -1.493239
      ESP Fit Center  235 is at  -2.141135  2.563623 -1.493239
      ESP Fit Center  236 is at  -2.568066  2.524062 -1.493239
      ESP Fit Center  237 is at  -2.951877  2.332947 -1.493239
      ESP Fit Center  238 is at  -1.552816  1.803720 -1.687300
      ESP Fit Center  239 is at  -1.846967  2.097871 -1.687300
      ESP Fit Center  240 is at  -2.248784  2.205537 -1.687300
      ESP Fit Center  241 is at  -2.650602  2.097871 -1.687300
      ESP Fit Center  242 is at  -1.846967  0.705934 -1.687300
      ESP Fit Center  243 is at  -1.839095  1.401902 -1.806802
      ESP Fit Center  244 is at  -2.043939  1.756704 -1.806802
      ESP Fit Center  245 is at  -2.453629  1.756704 -1.806802
      ESP Fit Center  246 is at  -2.043939  1.047101 -1.806802
      ESP Fit Center  247 is at  -2.248784  1.401902 -1.847153
      ESP Fit Center  248 is at  -0.901299  0.987973  2.272027
      ESP Fit Center  249 is at  -0.491610  0.987973  2.231676
      ESP Fit Center  250 is at  -0.696455  1.342775  2.231676
      ESP Fit Center  251 is at  -1.106144  1.342775  2.231676
      ESP Fit Center  252 is at  -1.310989  0.987973  2.231676
      ESP Fit Center  253 is at  -1.106144  0.633171  2.231676
      ESP Fit Center  254 is at  -0.696455  0.633171  2.231676
      ESP Fit Center  255 is at  -0.097664  0.987973  2.112174
      ESP Fit Center  256 is at  -0.205331  1.389791  2.112174
      ESP Fit Center  257 is at  -0.499482  1.683941  2.112174
      ESP Fit Center  258 is at  -0.901299  1.791608  2.112174
      ESP Fit Center  259 is at  -1.303117  1.683941  2.112174
      ESP Fit Center  260 is at  -1.597268  0.586155  2.112174
      ESP Fit Center  261 is at  -1.303117  0.292004  2.112174
      ESP Fit Center  262 is at  -0.205331  0.586155  2.112174
      ESP Fit Center  263 is at   0.265398  0.987973  1.918113
      ESP Fit Center  264 is at  -0.793650  2.149693  1.918113
      ESP Fit Center  265 is at  -1.220581  2.110132 -1.574059
      ESP Fit Center  266 is at  -1.604392  0.056928 -1.574059
      ESP Fit Center  267 is at  -1.303117  1.683941 -1.768120
      ESP Fit Center  268 is at  -1.597268  1.389791 -1.768120
      ESP Fit Center  269 is at  -1.704935  0.987973 -1.768120
      ESP Fit Center  270 is at  -1.597268  0.586155 -1.768120
      ESP Fit Center  271 is at  -1.303117  0.292004 -1.768120
      ESP Fit Center  272 is at  -0.901299  0.184338 -1.768120
      ESP Fit Center  273 is at  -0.499482  0.292004 -1.768120
      ESP Fit Center  274 is at  -0.205331  0.586155 -1.768120
      ESP Fit Center  275 is at  -0.491610  0.987973 -1.887622
      ESP Fit Center  276 is at  -0.696455  1.342775 -1.887622
      ESP Fit Center  277 is at  -1.106144  1.342775 -1.887622
      ESP Fit Center  278 is at  -1.310989  0.987973 -1.887622
      ESP Fit Center  279 is at  -1.106144  0.633171 -1.887622
      ESP Fit Center  280 is at  -0.696455  0.633171 -1.887622
      ESP Fit Center  281 is at  -0.901299  0.987973 -1.927973
      ESP Fit Center  282 is at   0.139630  1.927835  2.120904
      ESP Fit Center  283 is at   0.549320  1.927835  2.080553
      ESP Fit Center  284 is at   0.344475  2.282637  2.080553
      ESP Fit Center  285 is at  -0.065215  2.282637  2.080553
      ESP Fit Center  286 is at  -0.270060  1.927835  2.080553
      ESP Fit Center  287 is at  -0.065215  1.573033  2.080553
      ESP Fit Center  288 is at   0.344475  1.573033  2.080553
      ESP Fit Center  289 is at   0.943265  1.927835  1.961051
      ESP Fit Center  290 is at   0.835599  2.329653  1.961051
      ESP Fit Center  291 is at   0.541448  2.623804  1.961051
      ESP Fit Center  292 is at   0.139630  2.731470  1.961051
      ESP Fit Center  293 is at  -0.262188  2.623804  1.961051
      ESP Fit Center  294 is at  -0.556338  2.329653  1.961051
      ESP Fit Center  295 is at   0.541448  1.231867  1.961051
      ESP Fit Center  296 is at   0.835599  1.526017  1.961051
      ESP Fit Center  297 is at   1.001830  2.713834  1.766990
      ESP Fit Center  298 is at   0.659672  2.972220  1.766990
      ESP Fit Center  299 is at   0.247279  3.089556  1.766990
      ESP Fit Center  300 is at  -0.179652  3.049995  1.766990
      ESP Fit Center  301 is at  -0.563462  2.858880  1.766990
      ESP Fit Center  302 is at  -0.852316  2.542022  1.766990
      ESP Fit Center  303 is at   0.659672  0.883450  1.766990
      ESP Fit Center  304 is at   1.112049  3.050066  1.505828
      ESP Fit Center  305 is at   0.756490  3.278570  1.505828
      ESP Fit Center  306 is at  -0.832789  3.050066  1.505828
      ESP Fit Center  307 is at  -1.109568  2.730646  1.505828
      ESP Fit Center  308 is at   1.131520  3.364836  1.187601
      ESP Fit Center  309 is at   1.131520  3.364836 -1.145794
      ESP Fit Center  310 is at  -1.406452  2.739282 -1.145794
      ESP Fit Center  311 is at   0.756490  3.278570 -1.464021
      ESP Fit Center  312 is at  -1.109568  2.730646 -1.464021
      ESP Fit Center  313 is at  -1.285144  2.346187 -1.464021
      ESP Fit Center  314 is at   0.659672  2.972220 -1.725183
      ESP Fit Center  315 is at   0.247279  3.089556 -1.725183
      ESP Fit Center  316 is at  -0.179652  3.049995 -1.725183
      ESP Fit Center  317 is at  -0.563462  2.858880 -1.725183
      ESP Fit Center  318 is at  -0.852316  2.542022 -1.725183
      ESP Fit Center  319 is at  -1.007202  2.142215 -1.725183
      ESP Fit Center  320 is at   0.247279  0.766114 -1.725183
      ESP Fit Center  321 is at   0.541448  2.623804 -1.919243
      ESP Fit Center  322 is at   0.139630  2.731470 -1.919243
      ESP Fit Center  323 is at  -0.262188  2.623804 -1.919243
      ESP Fit Center  324 is at  -0.556338  2.329653 -1.919243
      ESP Fit Center  325 is at  -0.664005  1.927835 -1.919243
      ESP Fit Center  326 is at  -0.556338  1.526017 -1.919243
      ESP Fit Center  327 is at  -0.262188  1.231867 -1.919243
      ESP Fit Center  328 is at   0.139630  1.124200 -1.919243
      ESP Fit Center  329 is at   0.549320  1.927835 -2.038746
      ESP Fit Center  330 is at   0.344475  2.282637 -2.038746
      ESP Fit Center  331 is at  -0.065215  2.282637 -2.038746
      ESP Fit Center  332 is at  -0.270060  1.927835 -2.038746
      ESP Fit Center  333 is at  -0.065215  1.573033 -2.038746
      ESP Fit Center  334 is at   0.344475  1.573033 -2.038746
      ESP Fit Center  335 is at   0.139630  1.927835 -2.079096
      ESP Fit Center  336 is at   1.445285  1.525682  2.017443
      ESP Fit Center  337 is at   1.854975  1.525682  1.977092
      ESP Fit Center  338 is at   1.650130  1.880484  1.977092
      ESP Fit Center  339 is at   1.240440  1.880484  1.977092
      ESP Fit Center  340 is at   1.035595  1.525682  1.977092
      ESP Fit Center  341 is at   1.240440  1.170881  1.977092
      ESP Fit Center  342 is at   1.650130  1.170881  1.977092
      ESP Fit Center  343 is at   2.141254  1.927500  1.857590
      ESP Fit Center  344 is at   1.847103  2.221651  1.857590
      ESP Fit Center  345 is at   1.445285  2.329318  1.857590
      ESP Fit Center  346 is at   1.043467  0.829714  1.857590
      ESP Fit Center  347 is at   2.307485  2.311681  1.663529
      ESP Fit Center  348 is at   1.965327  2.570067  1.663529
      ESP Fit Center  349 is at   1.552934  2.687403  1.663529
      ESP Fit Center  350 is at   2.062145  2.876417  1.402367
      ESP Fit Center  351 is at   1.656612  2.995492  1.402367
      ESP Fit Center  352 is at   1.655753  3.259038  1.084140
      ESP Fit Center  353 is at   1.234818  3.259038 -1.249255
      ESP Fit Center  354 is at   1.233958  2.995492 -1.567481
      ESP Fit Center  355 is at   1.552934  2.687403 -1.828643
      ESP Fit Center  356 is at   1.126003  2.647842 -1.828643
      ESP Fit Center  357 is at   0.453339  0.911495 -1.828643
      ESP Fit Center  358 is at   0.742193  0.594638 -1.828643
      ESP Fit Center  359 is at   2.141254  1.927500 -2.022704
      ESP Fit Center  360 is at   1.847103  2.221651 -2.022704
      ESP Fit Center  361 is at   1.445285  2.329318 -2.022704
      ESP Fit Center  362 is at   1.043467  2.221651 -2.022704
      ESP Fit Center  363 is at   0.749317  1.927500 -2.022704
      ESP Fit Center  364 is at   0.641650  1.525682 -2.022704
      ESP Fit Center  365 is at   0.749317  1.123865 -2.022704
      ESP Fit Center  366 is at   1.043467  0.829714 -2.022704
      ESP Fit Center  367 is at   1.854975  1.525682 -2.142206
      ESP Fit Center  368 is at   1.650130  1.880484 -2.142206
      ESP Fit Center  369 is at   1.240440  1.880484 -2.142206
      ESP Fit Center  370 is at   1.035595  1.525682 -2.142206
      ESP Fit Center  371 is at   1.240440  1.170881 -2.142206
      ESP Fit Center  372 is at   1.650130  1.170881 -2.142206
      ESP Fit Center  373 is at   1.445285  1.525682 -2.182557
      ESP Fit Center  374 is at   1.071467  0.584349  1.911505
      ESP Fit Center  375 is at   0.620603  0.396912 -1.774729
      ESP Fit Center  376 is at   1.071467  0.584349 -1.968789
      ESP Fit Center  377 is at   0.963800  0.182532 -1.968789
      ESP Fit Center  378 is at   3.622269 -0.368178  3.127846
      ESP Fit Center  379 is at   4.042563 -0.368178  3.100298
      ESP Fit Center  380 is at   3.832416 -0.004193  3.100298
      ESP Fit Center  381 is at   3.412122 -0.004193  3.100298
      ESP Fit Center  382 is at   3.201975 -0.368178  3.100298
      ESP Fit Center  383 is at   3.412122 -0.732164  3.100298
      ESP Fit Center  384 is at   3.832416 -0.732164  3.100298
      ESP Fit Center  385 is at   4.455666 -0.368178  3.018127
      ESP Fit Center  386 is at   4.344012  0.048520  3.018127
      ESP Fit Center  387 is at   4.038968  0.353565  3.018127
      ESP Fit Center  388 is at   3.622269  0.465219  3.018127
      ESP Fit Center  389 is at   3.205570  0.353565  3.018127
      ESP Fit Center  390 is at   2.900526  0.048520  3.018127
      ESP Fit Center  391 is at   2.788872 -0.368178  3.018127
      ESP Fit Center  392 is at   2.900526 -0.784877  3.018127
      ESP Fit Center  393 is at   3.205570 -1.089922  3.018127
      ESP Fit Center  394 is at   3.622269 -1.201576  3.018127
      ESP Fit Center  395 is at   4.038968 -1.089922  3.018127
      ESP Fit Center  396 is at   4.344012 -0.784877  3.018127
      ESP Fit Center  397 is at   4.854510 -0.368178  2.882738
      ESP Fit Center  398 is at   4.780196  0.053273  2.882738
      ESP Fit Center  399 is at   4.566220  0.423891  2.882738
      ESP Fit Center  400 is at   4.238389  0.698973  2.882738
      ESP Fit Center  401 is at   3.836245  0.845342  2.882738
      ESP Fit Center  402 is at   3.408293  0.845342  2.882738
      ESP Fit Center  403 is at   3.006149  0.698973  2.882738
      ESP Fit Center  404 is at   2.678318  0.423891  2.882738
      ESP Fit Center  405 is at   2.464342  0.053273  2.882738
      ESP Fit Center  406 is at   2.390028 -0.368178  2.882738
      ESP Fit Center  407 is at   2.464342 -0.789629  2.882738
      ESP Fit Center  408 is at   2.678318 -1.160247  2.882738
      ESP Fit Center  409 is at   3.006149 -1.435330  2.882738
      ESP Fit Center  410 is at   3.408293 -1.581698  2.882738
      ESP Fit Center  411 is at   3.836245 -1.581698  2.882738
      ESP Fit Center  412 is at   4.238389 -1.435330  2.882738
      ESP Fit Center  413 is at   4.566220 -1.160247  2.882738
      ESP Fit Center  414 is at   4.780196 -0.789629  2.882738
      ESP Fit Center  415 is at   5.232269 -0.368178  2.696448
      ESP Fit Center  416 is at   5.177410  0.048520  2.696448
      ESP Fit Center  417 is at   5.016570  0.436822  2.696448
      ESP Fit Center  418 is at   4.760711  0.770264  2.696448
      ESP Fit Center  419 is at   4.427269  1.026123  2.696448
      ESP Fit Center  420 is at   4.038968  1.186962  2.696448
      ESP Fit Center  421 is at   3.622269  1.241822  2.696448
      ESP Fit Center  422 is at   3.205570  1.186962  2.696448
      ESP Fit Center  423 is at   2.817269  1.026123  2.696448
      ESP Fit Center  424 is at   2.483827  0.770264  2.696448
      ESP Fit Center  425 is at   2.227968  0.436822  2.696448
      ESP Fit Center  426 is at   2.067128  0.048520  2.696448
      ESP Fit Center  427 is at   2.012269 -0.368178  2.696448
      ESP Fit Center  428 is at   2.067128 -0.784877  2.696448
      ESP Fit Center  429 is at   2.227968 -1.173178  2.696448
      ESP Fit Center  430 is at   2.483827 -1.506620  2.696448
[...]
 7530 Fit       0.007084
 7531 Fit       0.008144
 7532 Fit       0.009160
 7533 Fit       0.010190
 7534 Fit       0.003372
 7535 Fit       0.004701
 7536 Fit       0.005886
 7537 Fit       0.006980
 7538 Fit       0.008029
 7539 Fit       0.009080
 7540 Fit       0.004909
 7541 Fit       0.006017
 7542 Fit       0.007092
 7543 Fit       0.008179
 7544 Fit       0.004547
 7545 Fit       0.005633
 7546 Fit       0.006720
 7547 Fit       0.007860
 7548 Fit       0.005145
 7549 Fit       0.006232
 7550 Fit       0.007402
 7551 Fit       0.005181
 7552 Fit       0.006347
 7553 Fit       0.003965
 7554 Fit       0.005130
 7555 Fit      -0.011077
 7556 Fit       0.004024
 7557 Fit       0.000677
 7558 Fit      -0.006934
 7559 Fit      -0.007474
 7560 Fit       0.001800
 7561 Fit       0.003260
 7562 Fit       0.000449
 7563 Fit      -0.002021
 7564 Fit      -0.003767
 7565 Fit      -0.004546
 7566 Fit      -0.003997
 7567 Fit      -0.000065
 7568 Fit       0.001770
 7569 Fit       0.003241
 7570 Fit       0.000239
 7571 Fit      -0.001785
 7572 Fit      -0.001876
 7573 Fit      -0.000066
 7574 Fit       0.001724
 7575 Fit       0.002016
 7576 Fit       0.000051
 7577 Fit       0.013665
 7578 Fit       0.014919
 7579 Fit       0.016606
 7580 Fit       0.018924
 7581 Fit       0.011990
 7582 Fit       0.012813
 7583 Fit       0.013862
 7584 Fit       0.015210
 7585 Fit       0.016993
 7586 Fit       0.011351
 7587 Fit       0.012095
 7588 Fit       0.012987
 7589 Fit       0.014070
 7590 Fit       0.015421
 7591 Fit       0.017180
 7592 Fit       0.010550
 7593 Fit       0.011229
 7594 Fit       0.011999
 7595 Fit       0.012879
 7596 Fit       0.013907
 7597 Fit       0.015150
 7598 Fit       0.016720
 7599 Fit       0.018803
 7600 Fit       0.009308
 7601 Fit       0.009952
 7602 Fit       0.010652
 7603 Fit       0.011411
 7604 Fit       0.012239
 7605 Fit       0.013162
 7606 Fit       0.014224
 7607 Fit       0.015495
 7608 Fit       0.017080
 7609 Fit       0.009047
 7610 Fit       0.009778
 7611 Fit       0.010538
 7612 Fit       0.011330
 7613 Fit       0.012164
 7614 Fit       0.013063
 7615 Fit       0.014062
 7616 Fit       0.015204
 7617 Fit       0.016527
 7618 Fit       0.008025
 7619 Fit       0.008801
 7620 Fit       0.009581
 7621 Fit       0.010360
 7622 Fit       0.011136
 7623 Fit       0.011915
 7624 Fit       0.012708
 7625 Fit       0.013521
 7626 Fit       0.014336
 7627 Fit       0.015073
 7628 Fit       0.010170
 7629 Fit       0.007042
 7630 Fit       0.007927
 7631 Fit       0.008789
 7632 Fit       0.009613
 7633 Fit       0.010392
 7634 Fit       0.011117
 7635 Fit       0.011775
 7636 Fit       0.012334
 7637 Fit       0.012703
 7638 Fit       0.012695
 7639 Fit       0.011983
 7640 Fit       0.007999
 7641 Fit       0.005189
 7642 Fit       0.005896
 7643 Fit       0.006907
 7644 Fit       0.007862
 7645 Fit       0.008736
 7646 Fit       0.009508
 7647 Fit       0.010152
 7648 Fit       0.010624
 7649 Fit       0.010838
 7650 Fit       0.010638
 7651 Fit       0.009779
 7652 Fit       0.006582
 7653 Fit       0.004109
 7654 Fit       0.005244
 7655 Fit       0.006403
 7656 Fit       0.007430
 7657 Fit       0.008284
 7658 Fit       0.008909
 7659 Fit       0.009216
 7660 Fit       0.009065
 7661 Fit       0.008249
 7662 Fit       0.005614
 7663 Fit       0.003365
 7664 Fit       0.005362
 7665 Fit       0.006575
 7666 Fit       0.007410
 7667 Fit       0.007680
 7668 Fit       0.007143
 7669 Fit       0.004923
 7670 Fit       0.003043
 7671 Fit       0.004076
 7672 Fit       0.005580
 7673 Fit       0.006078
 7674 Fit       0.004419
 7675 Fit       0.008791
 7676 Fit       0.010773
 7677 Fit       0.008892
 7678 Fit       0.006866
 7679 Fit       0.007124
 7680 Fit       0.008761
 7681 Fit       0.010371
 7682 Fit       0.009119
 7683 Fit       0.006189
 7684 Fit       0.004505
 7685 Fit       0.004511
 7686 Fit       0.005652
 7687 Fit       0.007200
 7688 Fit       0.008762
 7689 Fit       0.010245
 7690 Fit       0.011662
 7691 Fit       0.012882
 7692 Fit       0.005883
 7693 Fit       0.002978
 7694 Fit       0.001551
 7695 Fit       0.001656
 7696 Fit       0.002770
 7697 Fit       0.004311
 7698 Fit       0.005910
 7699 Fit       0.007405
 7700 Fit       0.008769
 7701 Fit       0.010050
 7702 Fit       0.011333
 7703 Fit       0.012707
 7704 Fit       0.014218
 7705 Fit       0.000921
 7706 Fit      -0.001641
 7707 Fit      -0.002261
 7708 Fit      -0.001390
 7709 Fit       0.000258
 7710 Fit       0.002142
 7711 Fit       0.003970
 7712 Fit       0.005623
 7713 Fit       0.007079
 7714 Fit       0.008368
 7715 Fit       0.009549
 7716 Fit       0.010701
 7717 Fit       0.011919
 7718 Fit       0.013301
 7719 Fit       0.014943
 7720 Fit      -0.007326
 7721 Fit      -0.006132
 7722 Fit      -0.003929
 7723 Fit      -0.001470
 7724 Fit       0.000869
 7725 Fit       0.002947
 7726 Fit       0.004739
 7727 Fit       0.006272
 7728 Fit       0.007594
 7729 Fit       0.008764
 7730 Fit       0.009853
 7731 Fit       0.010938
 7732 Fit       0.012113
 7733 Fit       0.013477
 7734 Fit       0.015133
 7735 Fit      -0.009459
 7736 Fit      -0.006040
 7737 Fit      -0.002920
 7738 Fit      -0.000231
 7739 Fit       0.002034
 7740 Fit       0.003930
 7741 Fit       0.005524
 7742 Fit       0.006877
 7743 Fit       0.008052
 7744 Fit       0.009107
 7745 Fit       0.010110
 7746 Fit       0.011131
 7747 Fit       0.012256
 7748 Fit       0.013580
 7749 Fit       0.015201
 7750 Fit      -0.008204
 7751 Fit      -0.004309
 7752 Fit      -0.001175
 7753 Fit       0.001350
 7754 Fit       0.003404
 7755 Fit       0.005096
 7756 Fit       0.006512
 7757 Fit       0.007724
 7758 Fit       0.008796
 7759 Fit       0.009794
 7760 Fit       0.010789
 7761 Fit       0.011861
 7762 Fit       0.013110
 7763 Fit       0.014647
 7764 Fit      -0.001774
 7765 Fit       0.000909
 7766 Fit       0.003050
 7767 Fit       0.004793
 7768 Fit       0.006241
 7769 Fit       0.007474
 7770 Fit       0.008557
 7771 Fit       0.009551
 7772 Fit       0.010524
 7773 Fit       0.011549
 7774 Fit       0.012716
 7775 Fit       0.003960
 7776 Fit       0.005559
 7777 Fit       0.006903
 7778 Fit       0.008065
 7779 Fit       0.009109
 7780 Fit       0.010100
 7781 Fit      -0.016189
 7782 Fit      -0.010182
 7783 Fit      -0.015329
 7784 Fit      -0.009667
 7785 Fit      -0.005328
 7786 Fit      -0.001848
 7787 Fit      -0.020889
 7788 Fit      -0.014029
 7789 Fit      -0.008901
 7790 Fit      -0.004938
 7791 Fit      -0.001759
 7792 Fit       0.000911
 7793 Fit      -0.022678
 7794 Fit      -0.015578
 7795 Fit      -0.010251
 7796 Fit      -0.006150
 7797 Fit      -0.002905
 7798 Fit      -0.000248
 7799 Fit       0.002022
 7800 Fit      -0.017444
 7801 Fit      -0.011710
 7802 Fit      -0.007312
 7803 Fit      -0.003870
 7804 Fit      -0.001110
 7805 Fit       0.001179
 7806 Fit       0.003168
 7807 Fit      -0.016154
 7808 Fit      -0.010778
 7809 Fit      -0.006605
 7810 Fit      -0.003329
 7811 Fit      -0.000707
 7812 Fit       0.001451
 7813 Fit       0.003310
 7814 Fit      -0.020579
 7815 Fit      -0.014579
 7816 Fit      -0.009761
 7817 Fit      -0.005932
 7818 Fit      -0.002888
 7819 Fit      -0.000443
 7820 Fit       0.001562
 7821 Fit       0.003273
 7822 Fit      -0.018903
 7823 Fit      -0.013610
 7824 Fit      -0.009101
 7825 Fit      -0.005420
 7826 Fit      -0.002471
 7827 Fit      -0.000115
 7828 Fit       0.001796
 7829 Fit       0.003405
 7830 Fit      -0.016405
 7831 Fit      -0.012305
 7832 Fit      -0.008364
 7833 Fit      -0.004958
 7834 Fit      -0.002170
 7835 Fit       0.000057
 7836 Fit       0.001837
 7837 Fit       0.003297
 7838 Fit      -0.010800
 7839 Fit      -0.013306
 7840 Fit      -0.013936
 7841 Fit      -0.012329
 7842 Fit      -0.009378
 7843 Fit      -0.006127
 7844 Fit      -0.003194
 7845 Fit      -0.000798
 7846 Fit       0.001060
 7847 Fit       0.002467
 7848 Fit      -0.007629
 7849 Fit      -0.009020
 7850 Fit      -0.008246
 7851 Fit      -0.005790
 7852 Fit      -0.002963
 7853 Fit      -0.000605
 7854 Fit       0.001017
 7855 Fit      -0.004916
 7856 Fit      -0.005108
 7857 Fit      -0.002775
 7858 Fit      -0.000659
 7859 Fit      -0.002615
 7860 Fit       0.010465
 7861 Fit       0.010344
 7862 Fit       0.009656
 7863 Fit       0.009759
 7864 Fit       0.010507
 7865 Fit       0.011195
 7866 Fit       0.011138
 7867 Fit       0.010139
 7868 Fit       0.009227
 7869 Fit       0.008734
 7870 Fit       0.008686
 7871 Fit       0.008995
 7872 Fit       0.009629
 7873 Fit       0.010491
 7874 Fit       0.011325
 7875 Fit       0.011880
 7876 Fit       0.012056
 7877 Fit       0.011813
 7878 Fit       0.011128
 7879 Fit       0.009853
 7880 Fit       0.008740
 7881 Fit       0.007979
 7882 Fit       0.007655
 7883 Fit       0.007637
 7884 Fit       0.007804
 7885 Fit       0.008153
 7886 Fit       0.008713
 7887 Fit       0.009501
 7888 Fit       0.010450
 7889 Fit       0.011373
 7890 Fit       0.012092
 7891 Fit       0.012554
 7892 Fit       0.012783
 7893 Fit       0.012788
 7894 Fit       0.012532
 7895 Fit       0.011952
 7896 Fit       0.011021
 7897 Fit       0.009506
 7898 Fit       0.008042
 7899 Fit       0.006959
 7900 Fit       0.006436
 7901 Fit       0.006363
 7902 Fit       0.006483
 7903 Fit       0.006656
 7904 Fit       0.006941
 7905 Fit       0.007387
 7906 Fit       0.007990
 7907 Fit       0.008812
 7908 Fit       0.009871
 7909 Fit       0.011011
 7910 Fit       0.011995
 7911 Fit       0.012700
 7912 Fit       0.013150
 7913 Fit       0.013422
 7914 Fit       0.013564
 7915 Fit       0.013572
 7916 Fit       0.013403
 7917 Fit       0.012972
 7918 Fit       0.012182
 7919 Fit       0.010989
 7920 Fit       0.009140
 7921 Fit       0.005191
 7922 Fit       0.005331
 7923 Fit       0.005641
 7924 Fit       0.006212
 7925 Fit       0.006839
 7926 Fit       0.007527
 7927 Fit       0.008509
 7928 Fit       0.009848
 7929 Fit       0.011302
 7930 Fit       0.012512
 7931 Fit       0.013304
 7932 Fit       0.013758
 7933 Fit       0.014032
 7934 Fit       0.014222
 7935 Fit       0.014362
 7936 Fit       0.014441
 7937 Fit       0.014418
 7938 Fit       0.014209
 7939 Fit       0.013685
 7940 Fit       0.012693
 7941 Fit       0.011141
 7942 Fit       0.014851
 7943 Fit       0.014960
 7944 Fit       0.015096
 7945 Fit       0.015254
 7946 Fit       0.015416
 7947 Fit       0.015549
 7948 Fit       0.015589
 7949 Fit       0.015422
 7950 Fit       0.014856
 7951 Fit       0.013647
 7952 Fit       0.015962
 7953 Fit       0.016024
 7954 Fit       0.016196
 7955 Fit       0.016441
 7956 Fit       0.016738
 7957 Fit       0.017056
 7958 Fit       0.017331
 7959 Fit       0.018883
 7960 Fit       0.018449
 7961 Fit       0.018482
 7962 Fit       0.018736
 7963 Fit       0.019270
 7964 Fit       0.020204
 7965 Fit       0.021754
 7966 Fit       0.018756
 7967 Fit       0.018529
 7968 Fit       0.018443
 7969 Fit       0.018543
 7970 Fit       0.018879
 7971 Fit       0.019542
 7972 Fit       0.020719
 7973 Fit       0.018817
 7974 Fit       0.018565
 7975 Fit       0.018490
 7976 Fit       0.018619
 7977 Fit       0.019003
 7978 Fit       0.019753
 7979 Fit       0.021109
 7980 Fit       0.018996
 7981 Fit       0.018620
 7982 Fit       0.018477
 7983 Fit       0.018557
 7984 Fit       0.018894
 7985 Fit       0.019593
 7986 Fit       0.020885
 7987 Fit       0.018802
 7988 Fit       0.018421
 7989 Fit       0.018315
 7990 Fit       0.018461
 7991 Fit       0.018914
 7992 Fit       0.019825
 7993 Fit       0.018467
 7994 Fit       0.018056
 7995 Fit       0.017936
 7996 Fit       0.018073
 7997 Fit       0.018516
 7998 Fit       0.019401
 7999 Fit       0.017816
 8000 Fit       0.017417
 8001 Fit       0.017263
 8002 Fit       0.017309
 8003 Fit       0.017554
 8004 Fit       0.017145
 8005 Fit       0.016609
 8006 Fit       0.016285
 8007 Fit       0.016064
 8008 Fit       0.015836
 8009 Fit       0.016119
 8010 Fit       0.015503
 8011 Fit       0.014992
 8012 Fit       0.014415
 8013 Fit       0.013551
 8014 Fit       0.014841
 8015 Fit       0.014202
 8016 Fit       0.013488
 8017 Fit       0.012497
 8018 Fit       0.010944
 8019 Fit       0.008143
 8020 Fit       0.012672
 8021 Fit       0.011877
 8022 Fit       0.010421
 8023 Fit       0.007863
 8024 Fit       0.010184
 8025 Fit       0.009984
 8026 Fit       0.007643
 8027 Fit       0.015569
 8028 Fit       0.016443
 8029 Fit       0.019884
 8030 Fit       0.017524
 8031 Fit       0.020688
 8032 Fit       0.018277
 8033 Fit       0.016058
 8034 Fit       0.020152
 8035 Fit       0.017722
 8036 Fit       0.021912
 8037 Fit       0.019178
 8038 Fit       0.016833
 8039 Fit       0.021222
 8040 Fit       0.018532
 8041 Fit       0.016219
 8042 Fit       0.018872
 8043 Fit       0.016415
 8044 Fit       0.019610
 8045 Fit       0.016907
 8046 Fit       0.016980
 8047 Fit       0.015419
 8048 Fit       0.008534
 8049 Fit       0.009380
 8050 Fit       0.010416
 8051 Fit       0.011350
 8052 Fit       0.010878
 8053 Fit       0.011983
 8054 Fit       0.013161
 8055 Fit       0.011343
 8056 Fit       0.012521
 8057 Fit       0.013796
 8058 Fit       0.015382
 8059 Fit       0.011475
 8060 Fit       0.012653
 8061 Fit       0.013891
 8062 Fit       0.015389
 8063 Fit       0.017451
 8064 Fit       0.011518
 8065 Fit       0.012681
 8066 Fit       0.013879
 8067 Fit       0.015291
 8068 Fit       0.017187
 8069 Fit       0.011669
 8070 Fit       0.012830
 8071 Fit       0.014043
 8072 Fit       0.015497
 8073 Fit       0.017475
 8074 Fit       0.011722
 8075 Fit       0.012865
 8076 Fit       0.014084
 8077 Fit       0.015570
 8078 Fit       0.011439
 8079 Fit       0.012495
 8080 Fit       0.013594
 8081 Fit       0.014862
 8082 Fit       0.010153
 8083 Fit       0.011149
 8084 Fit       0.012029
 8085 Fit       0.009510
 8086 Fit       0.010135
 8087 Fit       0.011003
 8088 Fit       0.012071
 8089 Fit       0.013013
 8090 Fit       0.011663
 8091 Fit       0.012601
 8092 Fit       0.013536
 8093 Fit       0.014561
 8094 Fit       0.015761
 8095 Fit       0.017143
 8096 Fit       0.012775
 8097 Fit       0.013398
 8098 Fit       0.014094
 8099 Fit       0.014911
 8100 Fit       0.015926
 8101 Fit       0.017276
 8102 Fit       0.019168
 8103 Fit       0.014233
 8104 Fit       0.014377
 8105 Fit       0.014726
 8106 Fit       0.015250
 8107 Fit       0.015952
 8108 Fit       0.016892
 8109 Fit       0.018208
 8110 Fit       0.020160
 8111 Fit       0.015889
 8112 Fit       0.015505
 8113 Fit       0.015527
 8114 Fit       0.015824
 8115 Fit       0.016342
 8116 Fit       0.017093
 8117 Fit       0.018167
 8118 Fit       0.019772
 8119 Fit       0.022311
 8120 Fit       0.017435
 8121 Fit       0.016495
 8122 Fit       0.016174
 8123 Fit       0.016234
 8124 Fit       0.016557
 8125 Fit       0.017107
 8126 Fit       0.017919
 8127 Fit       0.019118
 8128 Fit       0.020967
 8129 Fit       0.023983
 8130 Fit       0.017087
 8131 Fit       0.016550
 8132 Fit       0.016459
 8133 Fit       0.016659
 8134 Fit       0.017088
 8135 Fit       0.017751
 8136 Fit       0.018733
 8137 Fit       0.020221
 8138 Fit       0.022591
 8139 Fit       0.016952
 8140 Fit       0.016467
 8141 Fit       0.016405
 8142 Fit       0.016622
 8143 Fit       0.017061
 8144 Fit       0.017739
 8145 Fit       0.018752
 8146 Fit       0.020308
 8147 Fit       0.022813
 8148 Fit       0.017069
 8149 Fit       0.016261
 8150 Fit       0.015997
 8151 Fit       0.016067
 8152 Fit       0.016370
 8153 Fit       0.016879
 8154 Fit       0.017637
 8155 Fit       0.018774
 8156 Fit       0.020539
 8157 Fit       0.015625
 8158 Fit       0.015275
 8159 Fit       0.015257
 8160 Fit       0.015461
 8161 Fit       0.015834
 8162 Fit       0.016379
 8163 Fit       0.017153
 8164 Fit       0.018281
 8165 Fit       0.019949
 8166 Fit       0.014028
 8167 Fit       0.014142
 8168 Fit       0.014402
 8169 Fit       0.014775
 8170 Fit       0.015261
 8171 Fit       0.015895
 8172 Fit       0.016736
 8173 Fit       0.017797
 8174 Fit       0.012187
 8175 Fit       0.012617
 8176 Fit       0.013014
 8177 Fit       0.013406
 8178 Fit       0.013800
 8179 Fit       0.014193
 8180 Fit       0.014533
 8181 Fit       0.014604
 8182 Fit       0.010757
 8183 Fit       0.011388
 8184 Fit       0.011805
 8185 Fit       0.012014
 8186 Fit       0.011921
 8187 Fit       0.013981
 8188 Fit       0.012110
 8189 Fit       0.009328
 8190 Fit       0.005631
 8191 Fit       0.018249
 8192 Fit       0.016751
 8193 Fit       0.014567
 8194 Fit       0.011680
 8195 Fit       0.007982
 8196 Fit       0.003335
 8197 Fit      -0.002367
 8198 Fit       0.021064
 8199 Fit       0.019009
 8200 Fit       0.016575
 8201 Fit       0.013638
 8202 Fit       0.010026
 8203 Fit       0.005527
 8204 Fit      -0.000106
 8205 Fit      -0.007149
 8206 Fit       0.022131
 8207 Fit       0.019467
 8208 Fit       0.016551
 8209 Fit       0.013134
 8210 Fit       0.008957
 8211 Fit       0.003712
 8212 Fit      -0.003006
 8213 Fit       0.021996
 8214 Fit       0.019021
 8215 Fit       0.015779
 8216 Fit       0.011975
 8217 Fit       0.007298
 8218 Fit       0.001355
 8219 Fit      -0.006416
 8220 Fit       0.023343
 8221 Fit       0.020201
 8222 Fit       0.016942
 8223 Fit       0.013226
 8224 Fit       0.008723
 8225 Fit       0.003042
 8226 Fit      -0.004380
 8227 Fit       0.022484
 8228 Fit       0.019180
 8229 Fit       0.015648
 8230 Fit       0.011514
 8231 Fit       0.006390
 8232 Fit      -0.000234
 8233 Fit       0.023440
 8234 Fit       0.020047
 8235 Fit       0.016546
 8236 Fit       0.012517
 8237 Fit       0.007551
 8238 Fit       0.001138
 8239 Fit      -0.007480
 8240 Fit       0.020212
 8241 Fit       0.016926
 8242 Fit       0.013153
 8243 Fit       0.008523
 8244 Fit       0.002585
 8245 Fit      -0.005300
 8246 Fit       0.018159
 8247 Fit       0.014927
 8248 Fit       0.010922
 8249 Fit       0.005780
 8250 Fit      -0.001000
 8251 Fit       0.017519
 8252 Fit       0.015512
 8253 Fit       0.012471
 8254 Fit       0.008320
 8255 Fit       0.002774
 8256 Fit      -0.004572
 8257 Fit       0.011913
 8258 Fit       0.008668
 8259 Fit       0.003839
 -----------------------------------------------------------------
 Leave Link  602 at Wed Jun  8 09:50:45 2016, MaxMem=    6291456 cpu:       3.8

 Test job not archived.
 1\1\GINC-COMPUTE-2-8\FOpt\RHF\6-31G(d)\C9H9Br1N2O1\DAVE\08-Jun-2016\0\
 \#HF/6-31G* SCF=tight Test Pop=MK iop(6/33=2) iop(6/42=6) opt\\remark 
 line goes here\\0,1\O,-2.8987666852,7.7872003633,-8.4786537408\C,-1.80
 64245997,8.2736226834,-8.5900386184\N,-1.6112468395,9.3730235977,-9.39
 69937999\C,-0.3628878266,9.8234742227,-9.8135905651\C,-0.2095753268,10
 .6269187128,-10.9333536821\C,1.0507022707,11.0602923911,-11.3041999626
 \C,2.1505820769,10.678489785,-10.5603346643\Br,3.8832829687,11.2604982
 358,-11.0727081307\C,2.0021120526,9.8735119592,-9.4456591799\C,0.74305
 81854,9.4504191879,-9.062718451\C,0.4988568185,8.6229714102,-7.8280054
 902\N,-0.6875498376,7.7969274298,-7.9754667525\C,-0.8516804359,6.73697
 84713,-7.0002459278\H,0.0338541883,6.1126050958,-7.0044885957\H,-0.992
 4599435,7.1343284528,-5.9976149825\H,-1.7094896339,6.1413045062,-7.261
 2719627\H,0.4073224438,9.2687034414,-6.9533783411\H,1.3403083152,7.965
 3167321,-7.6500693747\H,2.8655508442,9.5834083339,-8.8762080756\H,1.17
 30929373,11.6828814532,-12.1694987991\H,-1.0675732131,10.9123597723,-1
 1.515516137\H,-2.4190687601,9.6197637621,-9.9239847664\\Version=AM64L-
 G03RevD.02\State=1-A\HF=-3099.7406982\RMSD=5.448e-09\RMSF=4.920e-06\Th
 ermal=0.\Dipole=0.5090262,0.2067614,0.2164688\PG=C01 [X(C9H9Br1N2O1)]\
 \@


 MYSTERY IS THE WISDOM OF BLOCKHEADS... HORACE WALPOLE 
 Job cpu time:  0 days  0 hours 44 minutes 15.4 seconds.
 File lengths (MBytes):  RWF=     46 Int=      0 D2E=      0 Chk=      9 Scr=      1
 Normal termination of Gaussian 03 at Wed Jun  8 09:50:45 2016.
